
The number of threads in each node for OpenMP parallelization is 1.


*******************************************************
*******************************************************
 Welcome to OpenMX   Ver. 3.9.9                           
 Copyright (C), 2002-2019, T. Ozaki                    
 OpenMX comes with ABSOLUTELY NO WARRANTY.             
 This is free software, and you are welcome to         
 redistribute it under the constitution of the GNU-GPL.
*******************************************************
*******************************************************

Automatic determination of Kerker_factor:   0.418641813221


<Input_std>  Your input file was normally read.
<Input_std>  The system includes 1 species and 2 atoms.

*******************************************************
                     PAO and VPS                       
*******************************************************

<SetPara_DFT>  PAOs of species Fe were normally found.
<SetPara_DFT>  VPSs of species Fe were normally found.
               Fe_PBE19S.vps is j-dependent.
               In case of scf.SpinOrbit.Coupling=off,
               j-dependent pseudo potentials are averaged by j-degeneracy,
               which corresponds to a scalar relativistic treatment.

*******************************************************
     Fourier transform of PAO and projectors of VNL    
*******************************************************

<FT_PAO>          Fourier transform of pseudo atomic orbitals
<FT_NLP>          Fourier transform of non-local projectors
<FT_ProExpn_VNA>  Fourier transform of VNA separable projectors
<FT_VNA>          Fourier transform of VNA potentials
<FT_ProductPAO>   Fourier transform of product of PAOs

*******************************************************
  Allocation of atoms to processors at MD_iter=    1     
*******************************************************

 proc =   0  # of atoms=   1  estimated weight=         1.00000
 proc =   1  # of atoms=   1  estimated weight=         1.00000
 proc =   2  # of atoms=   0  estimated weight=         0.00000
 proc =   3  # of atoms=   0  estimated weight=         0.00000
 proc =   4  # of atoms=   0  estimated weight=         0.00000
 proc =   5  # of atoms=   0  estimated weight=         0.00000
 proc =   6  # of atoms=   0  estimated weight=         0.00000
 proc =   7  # of atoms=   0  estimated weight=         0.00000
 proc =   8  # of atoms=   0  estimated weight=         0.00000
 proc =   9  # of atoms=   0  estimated weight=         0.00000
 proc =  10  # of atoms=   0  estimated weight=         0.00000
 proc =  11  # of atoms=   0  estimated weight=         0.00000
 proc =  12  # of atoms=   0  estimated weight=         0.00000
 proc =  13  # of atoms=   0  estimated weight=         0.00000
 proc =  14  # of atoms=   0  estimated weight=         0.00000
 proc =  15  # of atoms=   0  estimated weight=         0.00000




*******************************************************
        Analysis of neighbors and setting of grids        
*******************************************************

TFNAN=     104   Average FNAN=  52.00000
TSNAN=       0   Average SNAN=   0.00000
<truncation> CpyCell= 1 ct_AN=   1 FNAN SNAN  52   0
<truncation> CpyCell= 1 ct_AN=   2 FNAN SNAN  52   0
TFNAN=     224   Average FNAN= 112.00000
TSNAN=       0   Average SNAN=   0.00000
<truncation> CpyCell= 2 ct_AN=   1 FNAN SNAN 112   0
<truncation> CpyCell= 2 ct_AN=   2 FNAN SNAN 112   0
TFNAN=     224   Average FNAN= 112.00000
TSNAN=       0   Average SNAN=   0.00000
<truncation> CpyCell= 3 ct_AN=   1 FNAN SNAN 112   0
<truncation> CpyCell= 3 ct_AN=   2 FNAN SNAN 112   0
TFNAN=     224   Average FNAN= 112.00000
TSNAN=       0   Average SNAN=   0.00000
<truncation> CpyCell= 3 ct_AN=   1 FNAN SNAN 112   0
<truncation> CpyCell= 3 ct_AN=   2 FNAN SNAN 112   0
<Check_System> The system is bulk.
lattice vectors (bohr)
A  =  5.260808179605,  0.000000000000,  0.000000000000
B  =  0.000000000000,  5.260808179605,  0.000000000000
C  =  0.000000000000,  0.000000000000,  5.260808179605
reciprocal lattice vectors (bohr^-1)
RA =  1.194338415823,  0.000000000000,  0.000000000000
RB =  0.000000000000,  1.194338415823,  0.000000000000
RC =  0.000000000000,  0.000000000000,  1.194338415823
Grid_Origin  0.000000000000  0.000000000000  0.000000000000
Cell_Volume =    145.598667477409 (Bohr^3)
GridVol     =      0.004443318710 (Bohr^3)
Grid_Origin  0.000000000000  0.000000000000  0.000000000000
Cell_Volume =    145.598667477409 (Bohr^3)
GridVol     =      0.004443318710 (Bohr^3)
<UCell_Box> Info. of cutoff energy and num. of grids
lattice vectors (bohr)
A  =  5.260808179605,  0.000000000000,  0.000000000000
B  =  0.000000000000,  5.260808179605,  0.000000000000
C  =  0.000000000000,  0.000000000000,  5.260808179605
reciprocal lattice vectors (bohr^-1)
RA =  1.194338415823,  0.000000000000,  0.000000000000
RB =  0.000000000000,  1.194338415823,  0.000000000000
RC =  0.000000000000,  0.000000000000,  1.194338415823
Required cutoff energy (Ryd) for 3D-grids = 365.1697
    Used cutoff energy (Ryd) for 3D-grids = 365.1697, 365.1697, 365.1697
Num. of grids of a-, b-, and c-axes = 32, 32, 32
Grid_Origin  0.000000000000  0.000000000000  0.000000000000
Cell_Volume =    145.598667477409 (Bohr^3)
GridVol     =      0.004443318710 (Bohr^3)
Cell vectors (bohr) of the grid cell (gtv)
  gtv_a =  0.164400255613,  0.000000000000,  0.000000000000
  gtv_b =  0.000000000000,  0.164400255613,  0.000000000000
  gtv_c =  0.000000000000,  0.000000000000,  0.164400255613
  |gtv_a| =  0.164400255613
  |gtv_b| =  0.164400255613
  |gtv_c| =  0.164400255613
Num. of grids overlapping with atom    1 = 203845
Num. of grids overlapping with atom    2 = 203845

*******************************************************
             SCF calculation at MD = 1                
*******************************************************

<MD= 1>  Calculation of the overlap matrix
<MD= 1>  Calculation of the nonlocal matrix
<MD= 1>  Calculation of the VNA projector matrix

******************* MD= 1  SCF= 1 *******************
<Band>  Solving the eigenvalue problem...
 KGrids1:  -0.45454  -0.36364  -0.27273  -0.18182  -0.09091   0.00000   0.09091   0.18182   0.27273   0.36364   0.45455 
 KGrids2:  -0.45455  -0.36364  -0.27273  -0.18182  -0.09091  -0.00000   0.09091   0.18182   0.27273   0.36364   0.45454 
 KGrids3:  -0.45454  -0.36363  -0.27273  -0.18182  -0.09091   0.00000   0.09091   0.18182   0.27273   0.36364   0.45455 
<Band_DFT>  Eigen, time=0.183362
<Band_DFT>  DM, time=0.255848
    1   Fe  MulP   7.9787   6.0213 sum  14.0000 diff   1.9575
    2   Fe  MulP   7.9787   6.0213 sum  14.0000 diff   1.9575
 Sum of MulP: up   =    15.95747 down          =    12.04253
              total=    28.00000 ideal(neutral)=    28.00000
<DFT>  Total Spin Moment (muB) =  3.914945775756
<DFT>  Mixing_weight= 0.020000000000
<DFT>  Uele   =  -29.314367358260  dUele     =   1.000000000000
<DFT>  NormRD =    1.000000000000  Criterion =   0.000000001000

******************* MD= 1  SCF= 2 *******************
<Poisson>  Poisson's equation using FFT...
<Set_Hamiltonian>  Hamiltonian matrix for VNA+dVH+Vxc...
<Band>  Solving the eigenvalue problem...
 KGrids1:  -0.45454  -0.36364  -0.27273  -0.18182  -0.09091   0.00000   0.09091   0.18182   0.27273   0.36364   0.45455 
 KGrids2:  -0.45455  -0.36364  -0.27273  -0.18182  -0.09091  -0.00000   0.09091   0.18182   0.27273   0.36364   0.45454 
 KGrids3:  -0.45454  -0.36363  -0.27273  -0.18182  -0.09091   0.00000   0.09091   0.18182   0.27273   0.36364   0.45455 
<Band_DFT>  Eigen, time=0.182447
<Band_DFT>  DM, time=0.250106
    1   Fe  MulP   7.9787   6.0213 sum  14.0000 diff   1.9575
    2   Fe  MulP   7.9787   6.0213 sum  14.0000 diff   1.9575
 Sum of MulP: up   =    15.95747 down          =    12.04253
              total=    28.00000 ideal(neutral)=    28.00000
<DFT>  Total Spin Moment (muB) =  3.914945775756
<DFT>  Mixing_weight= 0.001970174757
<DFT>  Uele   =  -29.314367358260  dUele     =   0.000000000000
<DFT>  NormRD =    3.025125409182  Criterion =   0.000000001000

******************* MD= 1  SCF= 3 *******************
<Poisson>  Poisson's equation using FFT...
<Set_Hamiltonian>  Hamiltonian matrix for VNA+dVH+Vxc...
<Band>  Solving the eigenvalue problem...
 KGrids1:  -0.45454  -0.36364  -0.27273  -0.18182  -0.09091   0.00000   0.09091   0.18182   0.27273   0.36364   0.45455 
 KGrids2:  -0.45455  -0.36364  -0.27273  -0.18182  -0.09091  -0.00000   0.09091   0.18182   0.27273   0.36364   0.45454 
 KGrids3:  -0.45454  -0.36363  -0.27273  -0.18182  -0.09091   0.00000   0.09091   0.18182   0.27273   0.36364   0.45455 
<Band_DFT>  Eigen, time=0.178473
<Band_DFT>  DM, time=0.252748
    1   Fe  MulP   7.9789   6.0211 sum  14.0000 diff   1.9578
    2   Fe  MulP   7.9789   6.0211 sum  14.0000 diff   1.9578
 Sum of MulP: up   =    15.95777 down          =    12.04223
              total=    28.00000 ideal(neutral)=    28.00000
<DFT>  Total Spin Moment (muB) =  3.915535191988
<DFT>  Mixing_weight= 0.386928874157
<DFT>  Uele   =  -29.319184869107  dUele     =   0.004817510848
<DFT>  NormRD =    3.017413873097  Criterion =   0.000000001000

******************* MD= 1  SCF= 4 *******************
<Poisson>  Poisson's equation using FFT...
<Set_Hamiltonian>  Hamiltonian matrix for VNA+dVH+Vxc...
<Band>  Solving the eigenvalue problem...
 KGrids1:  -0.45454  -0.36364  -0.27273  -0.18182  -0.09091   0.00000   0.09091   0.18182   0.27273   0.36364   0.45455 
 KGrids2:  -0.45455  -0.36364  -0.27273  -0.18182  -0.09091  -0.00000   0.09091   0.18182   0.27273   0.36364   0.45454 
 KGrids3:  -0.45454  -0.36363  -0.27273  -0.18182  -0.09091   0.00000   0.09091   0.18182   0.27273   0.36364   0.45455 
<Band_DFT>  Eigen, time=0.178815
<Band_DFT>  DM, time=0.251715
    1   Fe  MulP   8.0185   5.9815 sum  14.0000 diff   2.0370
    2   Fe  MulP   8.0185   5.9815 sum  14.0000 diff   2.0370
 Sum of MulP: up   =    16.03697 down          =    11.96303
              total=    28.00000 ideal(neutral)=    28.00000
<DFT>  Total Spin Moment (muB) =  4.073934187833
<DFT>  Mixing_weight= 0.400000000000
<DFT>  Uele   =  -30.265511151351  dUele     =   0.946326282243
<DFT>  NormRD =    1.716210255737  Criterion =   0.000000001000

******************* MD= 1  SCF= 5 *******************
<Poisson>  Poisson's equation using FFT...
<Set_Hamiltonian>  Hamiltonian matrix for VNA+dVH+Vxc...
<Band>  Solving the eigenvalue problem...
 KGrids1:  -0.45454  -0.36364  -0.27273  -0.18182  -0.09091   0.00000   0.09091   0.18182   0.27273   0.36364   0.45455 
 KGrids2:  -0.45455  -0.36364  -0.27273  -0.18182  -0.09091  -0.00000   0.09091   0.18182   0.27273   0.36364   0.45454 
 KGrids3:  -0.45454  -0.36363  -0.27273  -0.18182  -0.09091   0.00000   0.09091   0.18182   0.27273   0.36364   0.45455 
<Band_DFT>  Eigen, time=0.180287
<Band_DFT>  DM, time=0.252609
    1   Fe  MulP   8.0364   5.9636 sum  14.0000 diff   2.0729
    2   Fe  MulP   8.0364   5.9636 sum  14.0000 diff   2.0729
 Sum of MulP: up   =    16.07289 down          =    11.92711
              total=    28.00000 ideal(neutral)=    28.00000
<DFT>  Total Spin Moment (muB) =  4.145773525385
<DFT>  Mixing_weight= 0.400000000000
<DFT>  Uele   =  -30.399590746458  dUele     =   0.134079595108
<DFT>  NormRD =    1.192828676840  Criterion =   0.000000001000

******************* MD= 1  SCF= 6 *******************
<Poisson>  Poisson's equation using FFT...
<Set_Hamiltonian>  Hamiltonian matrix for VNA+dVH+Vxc...
<Band>  Solving the eigenvalue problem...
 KGrids1:  -0.45454  -0.36364  -0.27273  -0.18182  -0.09091   0.00000   0.09091   0.18182   0.27273   0.36364   0.45455 
 KGrids2:  -0.45455  -0.36364  -0.27273  -0.18182  -0.09091  -0.00000   0.09091   0.18182   0.27273   0.36364   0.45454 
 KGrids3:  -0.45454  -0.36363  -0.27273  -0.18182  -0.09091   0.00000   0.09091   0.18182   0.27273   0.36364   0.45455 
<Band_DFT>  Eigen, time=0.179578
<Band_DFT>  DM, time=0.251689
    1   Fe  MulP   8.0513   5.9487 sum  14.0000 diff   2.1025
    2   Fe  MulP   8.0513   5.9487 sum  14.0000 diff   2.1025
 Sum of MulP: up   =    16.10253 down          =    11.89747
              total=    28.00000 ideal(neutral)=    28.00000
<DFT>  Total Spin Moment (muB) =  4.205065716177
<DFT>  Mixing_weight= 0.400000000000
<DFT>  Uele   =  -30.420425345365  dUele     =   0.020834598906
<DFT>  NormRD =    0.870416437515  Criterion =   0.000000001000

******************* MD= 1  SCF= 7 *******************
<Poisson>  Poisson's equation using FFT...
<Set_Hamiltonian>  Hamiltonian matrix for VNA+dVH+Vxc...
<Band>  Solving the eigenvalue problem...
 KGrids1:  -0.45454  -0.36364  -0.27273  -0.18182  -0.09091   0.00000   0.09091   0.18182   0.27273   0.36364   0.45455 
 KGrids2:  -0.45455  -0.36364  -0.27273  -0.18182  -0.09091  -0.00000   0.09091   0.18182   0.27273   0.36364   0.45454 
 KGrids3:  -0.45454  -0.36363  -0.27273  -0.18182  -0.09091   0.00000   0.09091   0.18182   0.27273   0.36364   0.45455 
<Band_DFT>  Eigen, time=0.179991
<Band_DFT>  DM, time=0.251452
    1   Fe  MulP   8.0602   5.9398 sum  14.0000 diff   2.1204
    2   Fe  MulP   8.0602   5.9398 sum  14.0000 diff   2.1204
 Sum of MulP: up   =    16.12037 down          =    11.87963
              total=    28.00000 ideal(neutral)=    28.00000
<DFT>  Total Spin Moment (muB) =  4.240741703763
<DFT>  Mixing_weight= 0.400000000000
<DFT>  Uele   =  -30.428733588783  dUele     =   0.008308243418
<DFT>  NormRD =    0.632117588517  Criterion =   0.000000001000

******************* MD= 1  SCF= 8 *******************
<Poisson>  Poisson's equation using FFT...
<Set_Hamiltonian>  Hamiltonian matrix for VNA+dVH+Vxc...
<Band>  Solving the eigenvalue problem...
 KGrids1:  -0.45454  -0.36364  -0.27273  -0.18182  -0.09091   0.00000   0.09091   0.18182   0.27273   0.36364   0.45455 
 KGrids2:  -0.45455  -0.36364  -0.27273  -0.18182  -0.09091  -0.00000   0.09091   0.18182   0.27273   0.36364   0.45454 
 KGrids3:  -0.45454  -0.36363  -0.27273  -0.18182  -0.09091   0.00000   0.09091   0.18182   0.27273   0.36364   0.45455 
<Band_DFT>  Eigen, time=0.176902
<Band_DFT>  DM, time=0.255756
    1   Fe  MulP   8.0646   5.9354 sum  14.0000 diff   2.1293
    2   Fe  MulP   8.0646   5.9354 sum  14.0000 diff   2.1293
 Sum of MulP: up   =    16.12925 down          =    11.87075
              total=    28.00000 ideal(neutral)=    28.00000
<DFT>  Total Spin Moment (muB) =  4.258501139067
<DFT>  Mixing_weight= 0.400000000000
<DFT>  Uele   =  -30.433473579105  dUele     =   0.004739990323
<DFT>  NormRD =    0.450100807690  Criterion =   0.000000001000

******************* MD= 1  SCF= 9 *******************
<Poisson>  Poisson's equation using FFT...
<Set_Hamiltonian>  Hamiltonian matrix for VNA+dVH+Vxc...
<Band>  Solving the eigenvalue problem...
 KGrids1:  -0.45454  -0.36364  -0.27273  -0.18182  -0.09091   0.00000   0.09091   0.18182   0.27273   0.36364   0.45455 
 KGrids2:  -0.45455  -0.36364  -0.27273  -0.18182  -0.09091  -0.00000   0.09091   0.18182   0.27273   0.36364   0.45454 
 KGrids3:  -0.45454  -0.36363  -0.27273  -0.18182  -0.09091   0.00000   0.09091   0.18182   0.27273   0.36364   0.45455 
<Band_DFT>  Eigen, time=0.175457
<Band_DFT>  DM, time=0.258544
    1   Fe  MulP   8.0669   5.9331 sum  14.0000 diff   2.1339
    2   Fe  MulP   8.0669   5.9331 sum  14.0000 diff   2.1339
 Sum of MulP: up   =    16.13388 down          =    11.86612
              total=    28.00000 ideal(neutral)=    28.00000
<DFT>  Total Spin Moment (muB) =  4.267751056147
<DFT>  Mixing_weight= 0.400000000000
<DFT>  Uele   =  -30.436322571672  dUele     =   0.002848992567
<DFT>  NormRD =    0.317174309425  Criterion =   0.000000001000

******************* MD= 1  SCF=10 *******************
<Poisson>  Poisson's equation using FFT...
<Set_Hamiltonian>  Hamiltonian matrix for VNA+dVH+Vxc...
<Band>  Solving the eigenvalue problem...
 KGrids1:  -0.45454  -0.36364  -0.27273  -0.18182  -0.09091   0.00000   0.09091   0.18182   0.27273   0.36364   0.45455 
 KGrids2:  -0.45455  -0.36364  -0.27273  -0.18182  -0.09091  -0.00000   0.09091   0.18182   0.27273   0.36364   0.45454 
 KGrids3:  -0.45454  -0.36363  -0.27273  -0.18182  -0.09091   0.00000   0.09091   0.18182   0.27273   0.36364   0.45455 
<Band_DFT>  Eigen, time=0.180513
<Band_DFT>  DM, time=0.251503
    1   Fe  MulP   8.0683   5.9317 sum  14.0000 diff   2.1365
    2   Fe  MulP   8.0683   5.9317 sum  14.0000 diff   2.1365
 Sum of MulP: up   =    16.13655 down          =    11.86345
              total=    28.00000 ideal(neutral)=    28.00000
<DFT>  Total Spin Moment (muB) =  4.273093911757
<DFT>  Mixing_weight= 0.040000000000
<DFT>  Uele   =  -30.437954378209  dUele     =   0.001631806537
<DFT>  NormRD =    0.156583529241  Criterion =   0.000000001000

******************* MD= 1  SCF=11 *******************
<Poisson>  Poisson's equation using FFT...
<Set_Hamiltonian>  Hamiltonian matrix for VNA+dVH+Vxc...
<Band>  Solving the eigenvalue problem...
 KGrids1:  -0.45454  -0.36364  -0.27273  -0.18182  -0.09091   0.00000   0.09091   0.18182   0.27273   0.36364   0.45455 
 KGrids2:  -0.45455  -0.36364  -0.27273  -0.18182  -0.09091  -0.00000   0.09091   0.18182   0.27273   0.36364   0.45454 
 KGrids3:  -0.45454  -0.36363  -0.27273  -0.18182  -0.09091   0.00000   0.09091   0.18182   0.27273   0.36364   0.45455 
<Band_DFT>  Eigen, time=0.177128
<Band_DFT>  DM, time=0.256880
    1   Fe  MulP   8.0704   5.9295 sum  13.9999 diff   2.1409
    2   Fe  MulP   8.0705   5.9297 sum  14.0001 diff   2.1408
 Sum of MulP: up   =    16.14087 down          =    11.85913
              total=    28.00000 ideal(neutral)=    28.00000
<DFT>  Total Spin Moment (muB) =  4.281743147239
<DFT>  Mixing_weight= 0.040000000000
<DFT>  Uele   =  -30.440196996068  dUele     =   0.002242617859
<DFT>  NormRD =    0.023067551007  Criterion =   0.000000001000

******************* MD= 1  SCF=12 *******************
<Poisson>  Poisson's equation using FFT...
<Set_Hamiltonian>  Hamiltonian matrix for VNA+dVH+Vxc...
<Band>  Solving the eigenvalue problem...
 KGrids1:  -0.45454  -0.36364  -0.27273  -0.18182  -0.09091   0.00000   0.09091   0.18182   0.27273   0.36364   0.45455 
 KGrids2:  -0.45455  -0.36364  -0.27273  -0.18182  -0.09091  -0.00000   0.09091   0.18182   0.27273   0.36364   0.45454 
 KGrids3:  -0.45454  -0.36363  -0.27273  -0.18182  -0.09091   0.00000   0.09091   0.18182   0.27273   0.36364   0.45455 
<Band_DFT>  Eigen, time=0.176292
<Band_DFT>  DM, time=0.252721
    1   Fe  MulP   8.0711   5.9300 sum  14.0012 diff   2.1411
    2   Fe  MulP   8.0705   5.9283 sum  13.9988 diff   2.1422
 Sum of MulP: up   =    16.14167 down          =    11.85833
              total=    28.00000 ideal(neutral)=    28.00000
<DFT>  Total Spin Moment (muB) =  4.283342241895
<DFT>  Mixing_weight= 0.040000000000
<DFT>  Uele   =  -30.437608532224  dUele     =   0.002588463844
<DFT>  NormRD =    0.011622051152  Criterion =   0.000000001000

******************* MD= 1  SCF=13 *******************
<Poisson>  Poisson's equation using FFT...
<Set_Hamiltonian>  Hamiltonian matrix for VNA+dVH+Vxc...
<Band>  Solving the eigenvalue problem...
 KGrids1:  -0.45454  -0.36364  -0.27273  -0.18182  -0.09091   0.00000   0.09091   0.18182   0.27273   0.36364   0.45455 
 KGrids2:  -0.45455  -0.36364  -0.27273  -0.18182  -0.09091  -0.00000   0.09091   0.18182   0.27273   0.36364   0.45454 
 KGrids3:  -0.45454  -0.36363  -0.27273  -0.18182  -0.09091   0.00000   0.09091   0.18182   0.27273   0.36364   0.45455 
<Band_DFT>  Eigen, time=0.180747
<Band_DFT>  DM, time=0.253867
    1   Fe  MulP   8.0665   5.9156 sum  13.9821 diff   2.1508
    2   Fe  MulP   8.0757   5.9422 sum  14.0179 diff   2.1336
 Sum of MulP: up   =    16.14220 down          =    11.85780
              total=    28.00000 ideal(neutral)=    28.00000
<DFT>  Total Spin Moment (muB) =  4.284408441902
<DFT>  Mixing_weight= 0.040000000000
<DFT>  Uele   =  -30.439698989449  dUele     =   0.002090457225
<DFT>  NormRD =    0.058559954168  Criterion =   0.000000001000

******************* MD= 1  SCF=14 *******************
<Poisson>  Poisson's equation using FFT...
<Set_Hamiltonian>  Hamiltonian matrix for VNA+dVH+Vxc...
<Band>  Solving the eigenvalue problem...
 KGrids1:  -0.45454  -0.36364  -0.27273  -0.18182  -0.09091   0.00000   0.09091   0.18182   0.27273   0.36364   0.45455 
 KGrids2:  -0.45455  -0.36364  -0.27273  -0.18182  -0.09091  -0.00000   0.09091   0.18182   0.27273   0.36364   0.45454 
 KGrids3:  -0.45454  -0.36363  -0.27273  -0.18182  -0.09091   0.00000   0.09091   0.18182   0.27273   0.36364   0.45455 
<Band_DFT>  Eigen, time=0.175916
<Band_DFT>  DM, time=0.254604
    1   Fe  MulP   8.0714   5.9294 sum  14.0008 diff   2.1419
    2   Fe  MulP   8.0710   5.9283 sum  13.9992 diff   2.1427
 Sum of MulP: up   =    16.14231 down          =    11.85769
              total=    28.00000 ideal(neutral)=    28.00000
<DFT>  Total Spin Moment (muB) =  4.284619955116
<DFT>  Mixing_weight= 0.040000000000
<DFT>  Uele   =  -30.439818066120  dUele     =   0.000119076670
<DFT>  NormRD =    0.003657897860  Criterion =   0.000000001000

******************* MD= 1  SCF=15 *******************
<Poisson>  Poisson's equation using FFT...
<Set_Hamiltonian>  Hamiltonian matrix for VNA+dVH+Vxc...
<Band>  Solving the eigenvalue problem...
 KGrids1:  -0.45454  -0.36364  -0.27273  -0.18182  -0.09091   0.00000   0.09091   0.18182   0.27273   0.36364   0.45455 
 KGrids2:  -0.45455  -0.36364  -0.27273  -0.18182  -0.09091  -0.00000   0.09091   0.18182   0.27273   0.36364   0.45454 
 KGrids3:  -0.45454  -0.36363  -0.27273  -0.18182  -0.09091   0.00000   0.09091   0.18182   0.27273   0.36364   0.45455 
<Band_DFT>  Eigen, time=0.176737
<Band_DFT>  DM, time=0.251847
    1   Fe  MulP   8.0712   5.9288 sum  14.0000 diff   2.1424
    2   Fe  MulP   8.0712   5.9288 sum  14.0000 diff   2.1424
 Sum of MulP: up   =    16.14239 down          =    11.85761
              total=    28.00000 ideal(neutral)=    28.00000
<DFT>  Total Spin Moment (muB) =  4.284788421552
<DFT>  Mixing_weight= 0.040000000000
<DFT>  Uele   =  -30.438349106094  dUele     =   0.001468960026
<DFT>  NormRD =    0.000653273184  Criterion =   0.000000001000

******************* MD= 1  SCF=16 *******************
<Poisson>  Poisson's equation using FFT...
<Set_Hamiltonian>  Hamiltonian matrix for VNA+dVH+Vxc...
<Band>  Solving the eigenvalue problem...
 KGrids1:  -0.45454  -0.36364  -0.27273  -0.18182  -0.09091   0.00000   0.09091   0.18182   0.27273   0.36364   0.45455 
 KGrids2:  -0.45455  -0.36364  -0.27273  -0.18182  -0.09091  -0.00000   0.09091   0.18182   0.27273   0.36364   0.45454 
 KGrids3:  -0.45454  -0.36363  -0.27273  -0.18182  -0.09091   0.00000   0.09091   0.18182   0.27273   0.36364   0.45455 
<Band_DFT>  Eigen, time=0.177489
<Band_DFT>  DM, time=0.251810
    1   Fe  MulP   8.0712   5.9288 sum  14.0000 diff   2.1424
    2   Fe  MulP   8.0712   5.9288 sum  14.0000 diff   2.1424
 Sum of MulP: up   =    16.14244 down          =    11.85756
              total=    28.00000 ideal(neutral)=    28.00000
<DFT>  Total Spin Moment (muB) =  4.284879779766
<DFT>  Mixing_weight= 0.040000000000
<DFT>  Uele   =  -30.438481714241  dUele     =   0.000132608147
<DFT>  NormRD =    0.000102496386  Criterion =   0.000000001000

******************* MD= 1  SCF=17 *******************
<Poisson>  Poisson's equation using FFT...
<Set_Hamiltonian>  Hamiltonian matrix for VNA+dVH+Vxc...
<Band>  Solving the eigenvalue problem...
 KGrids1:  -0.45454  -0.36364  -0.27273  -0.18182  -0.09091   0.00000   0.09091   0.18182   0.27273   0.36364   0.45455 
 KGrids2:  -0.45455  -0.36364  -0.27273  -0.18182  -0.09091  -0.00000   0.09091   0.18182   0.27273   0.36364   0.45454 
 KGrids3:  -0.45454  -0.36363  -0.27273  -0.18182  -0.09091   0.00000   0.09091   0.18182   0.27273   0.36364   0.45455 
<Band_DFT>  Eigen, time=0.178056
<Band_DFT>  DM, time=0.252113
    1   Fe  MulP   8.0712   5.9288 sum  14.0000 diff   2.1424
    2   Fe  MulP   8.0712   5.9288 sum  14.0000 diff   2.1424
 Sum of MulP: up   =    16.14244 down          =    11.85756
              total=    28.00000 ideal(neutral)=    28.00000
<DFT>  Total Spin Moment (muB) =  4.284888847390
<DFT>  Mixing_weight= 0.040000000000
<DFT>  Uele   =  -30.438458162916  dUele     =   0.000023551325
<DFT>  NormRD =    0.000038533955  Criterion =   0.000000001000

******************* MD= 1  SCF=18 *******************
<Poisson>  Poisson's equation using FFT...
<Set_Hamiltonian>  Hamiltonian matrix for VNA+dVH+Vxc...
<Band>  Solving the eigenvalue problem...
 KGrids1:  -0.45454  -0.36364  -0.27273  -0.18182  -0.09091   0.00000   0.09091   0.18182   0.27273   0.36364   0.45455 
 KGrids2:  -0.45455  -0.36364  -0.27273  -0.18182  -0.09091  -0.00000   0.09091   0.18182   0.27273   0.36364   0.45454 
 KGrids3:  -0.45454  -0.36363  -0.27273  -0.18182  -0.09091   0.00000   0.09091   0.18182   0.27273   0.36364   0.45455 
<Band_DFT>  Eigen, time=0.178091
<Band_DFT>  DM, time=0.251403
    1   Fe  MulP   8.0712   5.9288 sum  14.0000 diff   2.1424
    2   Fe  MulP   8.0712   5.9288 sum  14.0000 diff   2.1424
 Sum of MulP: up   =    16.14244 down          =    11.85756
              total=    28.00000 ideal(neutral)=    28.00000
<DFT>  Total Spin Moment (muB) =  4.284889223713
<DFT>  Mixing_weight= 0.040000000000
<DFT>  Uele   =  -30.438465616604  dUele     =   0.000007453688
<DFT>  NormRD =    0.000033114685  Criterion =   0.000000001000

******************* MD= 1  SCF=19 *******************
<Poisson>  Poisson's equation using FFT...
<Set_Hamiltonian>  Hamiltonian matrix for VNA+dVH+Vxc...
<Band>  Solving the eigenvalue problem...
 KGrids1:  -0.45454  -0.36364  -0.27273  -0.18182  -0.09091   0.00000   0.09091   0.18182   0.27273   0.36364   0.45455 
 KGrids2:  -0.45455  -0.36364  -0.27273  -0.18182  -0.09091  -0.00000   0.09091   0.18182   0.27273   0.36364   0.45454 
 KGrids3:  -0.45454  -0.36363  -0.27273  -0.18182  -0.09091   0.00000   0.09091   0.18182   0.27273   0.36364   0.45455 
<Band_DFT>  Eigen, time=0.176128
<Band_DFT>  DM, time=0.253976
    1   Fe  MulP   8.0712   5.9288 sum  14.0000 diff   2.1424
    2   Fe  MulP   8.0712   5.9288 sum  14.0000 diff   2.1424
 Sum of MulP: up   =    16.14245 down          =    11.85755
              total=    28.00000 ideal(neutral)=    28.00000
<DFT>  Total Spin Moment (muB) =  4.284892460976
<DFT>  Mixing_weight= 0.040000000000
<DFT>  Uele   =  -30.438466655678  dUele     =   0.000001039074
<DFT>  NormRD =    0.000009028825  Criterion =   0.000000001000

******************* MD= 1  SCF=20 *******************
<Poisson>  Poisson's equation using FFT...
<Set_Hamiltonian>  Hamiltonian matrix for VNA+dVH+Vxc...
<Band>  Solving the eigenvalue problem...
 KGrids1:  -0.45454  -0.36364  -0.27273  -0.18182  -0.09091   0.00000   0.09091   0.18182   0.27273   0.36364   0.45455 
 KGrids2:  -0.45455  -0.36364  -0.27273  -0.18182  -0.09091  -0.00000   0.09091   0.18182   0.27273   0.36364   0.45454 
 KGrids3:  -0.45454  -0.36363  -0.27273  -0.18182  -0.09091   0.00000   0.09091   0.18182   0.27273   0.36364   0.45455 
<Band_DFT>  Eigen, time=0.179076
<Band_DFT>  DM, time=0.252728
    1   Fe  MulP   8.0712   5.9288 sum  14.0000 diff   2.1424
    2   Fe  MulP   8.0712   5.9288 sum  14.0000 diff   2.1424
 Sum of MulP: up   =    16.14245 down          =    11.85755
              total=    28.00000 ideal(neutral)=    28.00000
<DFT>  Total Spin Moment (muB) =  4.284893489850
<DFT>  Mixing_weight= 0.040000000000
<DFT>  Uele   =  -30.438467223143  dUele     =   0.000000567465
<DFT>  NormRD =    0.000001293419  Criterion =   0.000000001000

******************* MD= 1  SCF=21 *******************
<Poisson>  Poisson's equation using FFT...
<Set_Hamiltonian>  Hamiltonian matrix for VNA+dVH+Vxc...
<Band>  Solving the eigenvalue problem...
 KGrids1:  -0.45454  -0.36364  -0.27273  -0.18182  -0.09091   0.00000   0.09091   0.18182   0.27273   0.36364   0.45455 
 KGrids2:  -0.45455  -0.36364  -0.27273  -0.18182  -0.09091  -0.00000   0.09091   0.18182   0.27273   0.36364   0.45454 
 KGrids3:  -0.45454  -0.36363  -0.27273  -0.18182  -0.09091   0.00000   0.09091   0.18182   0.27273   0.36364   0.45455 
<Band_DFT>  Eigen, time=0.181079
<Band_DFT>  DM, time=0.250670
    1   Fe  MulP   8.0712   5.9288 sum  14.0000 diff   2.1424
    2   Fe  MulP   8.0712   5.9288 sum  14.0000 diff   2.1424
 Sum of MulP: up   =    16.14245 down          =    11.85755
              total=    28.00000 ideal(neutral)=    28.00000
<DFT>  Total Spin Moment (muB) =  4.284893643173
<DFT>  Mixing_weight= 0.040000000000
<DFT>  Uele   =  -30.438467330568  dUele     =   0.000000107425
<DFT>  NormRD =    0.000000136679  Criterion =   0.000000001000

******************* MD= 1  SCF=22 *******************
<Poisson>  Poisson's equation using FFT...
<Set_Hamiltonian>  Hamiltonian matrix for VNA+dVH+Vxc...
<Band>  Solving the eigenvalue problem...
 KGrids1:  -0.45454  -0.36364  -0.27273  -0.18182  -0.09091   0.00000   0.09091   0.18182   0.27273   0.36364   0.45455 
 KGrids2:  -0.45455  -0.36364  -0.27273  -0.18182  -0.09091  -0.00000   0.09091   0.18182   0.27273   0.36364   0.45454 
 KGrids3:  -0.45454  -0.36363  -0.27273  -0.18182  -0.09091   0.00000   0.09091   0.18182   0.27273   0.36364   0.45455 
<Band_DFT>  Eigen, time=0.178294
<Band_DFT>  DM, time=0.252956
    1   Fe  MulP   8.0712   5.9288 sum  14.0000 diff   2.1424
    2   Fe  MulP   8.0712   5.9288 sum  14.0000 diff   2.1424
 Sum of MulP: up   =    16.14245 down          =    11.85755
              total=    28.00000 ideal(neutral)=    28.00000
<DFT>  Total Spin Moment (muB) =  4.284893648816
<DFT>  Mixing_weight= 0.040000000000
<DFT>  Uele   =  -30.438467340005  dUele     =   0.000000009437
<DFT>  NormRD =    0.000000090315  Criterion =   0.000000001000

******************* MD= 1  SCF=23 *******************
<Poisson>  Poisson's equation using FFT...
<Set_Hamiltonian>  Hamiltonian matrix for VNA+dVH+Vxc...
<Band>  Solving the eigenvalue problem...
 KGrids1:  -0.45454  -0.36364  -0.27273  -0.18182  -0.09091   0.00000   0.09091   0.18182   0.27273   0.36364   0.45455 
 KGrids2:  -0.45455  -0.36364  -0.27273  -0.18182  -0.09091  -0.00000   0.09091   0.18182   0.27273   0.36364   0.45454 
 KGrids3:  -0.45454  -0.36363  -0.27273  -0.18182  -0.09091   0.00000   0.09091   0.18182   0.27273   0.36364   0.45455 
<Band_DFT>  Eigen, time=0.179756
<Band_DFT>  DM, time=0.253151
    1   Fe  MulP   8.0712   5.9288 sum  14.0000 diff   2.1424
    2   Fe  MulP   8.0712   5.9288 sum  14.0000 diff   2.1424
 Sum of MulP: up   =    16.14245 down          =    11.85755
              total=    28.00000 ideal(neutral)=    28.00000
<DFT>  Total Spin Moment (muB) =  4.284893651248
<DFT>  Mixing_weight= 0.040000000000
<DFT>  Uele   =  -30.438467345246  dUele     =   0.000000005241
<DFT>  NormRD =    0.000000069828  Criterion =   0.000000001000

******************* MD= 1  SCF=24 *******************
<Poisson>  Poisson's equation using FFT...
<Set_Hamiltonian>  Hamiltonian matrix for VNA+dVH+Vxc...
<Band>  Solving the eigenvalue problem...
 KGrids1:  -0.45454  -0.36364  -0.27273  -0.18182  -0.09091   0.00000   0.09091   0.18182   0.27273   0.36364   0.45455 
 KGrids2:  -0.45455  -0.36364  -0.27273  -0.18182  -0.09091  -0.00000   0.09091   0.18182   0.27273   0.36364   0.45454 
 KGrids3:  -0.45454  -0.36363  -0.27273  -0.18182  -0.09091   0.00000   0.09091   0.18182   0.27273   0.36364   0.45455 
<Band_DFT>  Eigen, time=0.179205
<Band_DFT>  DM, time=0.255343
    1   Fe  MulP   8.0712   5.9288 sum  14.0000 diff   2.1424
    2   Fe  MulP   8.0712   5.9288 sum  14.0000 diff   2.1424
 Sum of MulP: up   =    16.14245 down          =    11.85755
              total=    28.00000 ideal(neutral)=    28.00000
<DFT>  Total Spin Moment (muB) =  4.284893655483
<DFT>  Mixing_weight= 0.040000000000
<DFT>  Uele   =  -30.438467352479  dUele     =   0.000000007233
<DFT>  NormRD =    0.000000036144  Criterion =   0.000000001000

******************* MD= 1  SCF=25 *******************
<Poisson>  Poisson's equation using FFT...
<Set_Hamiltonian>  Hamiltonian matrix for VNA+dVH+Vxc...
<Band>  Solving the eigenvalue problem...
 KGrids1:  -0.45454  -0.36364  -0.27273  -0.18182  -0.09091   0.00000   0.09091   0.18182   0.27273   0.36364   0.45455 
 KGrids2:  -0.45455  -0.36364  -0.27273  -0.18182  -0.09091  -0.00000   0.09091   0.18182   0.27273   0.36364   0.45454 
 KGrids3:  -0.45454  -0.36363  -0.27273  -0.18182  -0.09091   0.00000   0.09091   0.18182   0.27273   0.36364   0.45455 
<Band_DFT>  Eigen, time=0.176560
<Band_DFT>  DM, time=0.251625
    1   Fe  MulP   8.0712   5.9288 sum  14.0000 diff   2.1424
    2   Fe  MulP   8.0712   5.9288 sum  14.0000 diff   2.1424
 Sum of MulP: up   =    16.14245 down          =    11.85755
              total=    28.00000 ideal(neutral)=    28.00000
<DFT>  Total Spin Moment (muB) =  4.284893656196
<DFT>  Mixing_weight= 0.040000000000
<DFT>  Uele   =  -30.438467354099  dUele     =   0.000000001620
<DFT>  NormRD =    0.000000029604  Criterion =   0.000000001000

******************* MD= 1  SCF=26 *******************
<Poisson>  Poisson's equation using FFT...
<Set_Hamiltonian>  Hamiltonian matrix for VNA+dVH+Vxc...
<Band>  Solving the eigenvalue problem...
 KGrids1:  -0.45454  -0.36364  -0.27273  -0.18182  -0.09091   0.00000   0.09091   0.18182   0.27273   0.36364   0.45455 
 KGrids2:  -0.45455  -0.36364  -0.27273  -0.18182  -0.09091  -0.00000   0.09091   0.18182   0.27273   0.36364   0.45454 
 KGrids3:  -0.45454  -0.36363  -0.27273  -0.18182  -0.09091   0.00000   0.09091   0.18182   0.27273   0.36364   0.45455 
<Band_DFT>  Eigen, time=0.178155
<Band_DFT>  DM, time=0.253440
    1   Fe  MulP   8.0712   5.9288 sum  14.0000 diff   2.1424
    2   Fe  MulP   8.0712   5.9288 sum  14.0000 diff   2.1424
 Sum of MulP: up   =    16.14245 down          =    11.85755
              total=    28.00000 ideal(neutral)=    28.00000
<DFT>  Total Spin Moment (muB) =  4.284893657550
<DFT>  Mixing_weight= 0.040000000000
<DFT>  Uele   =  -30.438467358110  dUele     =   0.000000004011
<DFT>  NormRD =    0.000000015905  Criterion =   0.000000001000

******************* MD= 1  SCF=27 *******************
<Poisson>  Poisson's equation using FFT...
<Set_Hamiltonian>  Hamiltonian matrix for VNA+dVH+Vxc...
<Band>  Solving the eigenvalue problem...
 KGrids1:  -0.45454  -0.36364  -0.27273  -0.18182  -0.09091   0.00000   0.09091   0.18182   0.27273   0.36364   0.45455 
 KGrids2:  -0.45455  -0.36364  -0.27273  -0.18182  -0.09091  -0.00000   0.09091   0.18182   0.27273   0.36364   0.45454 
 KGrids3:  -0.45454  -0.36363  -0.27273  -0.18182  -0.09091   0.00000   0.09091   0.18182   0.27273   0.36364   0.45455 
<Band_DFT>  Eigen, time=0.179241
<Band_DFT>  DM, time=0.253414
    1   Fe  MulP   8.0712   5.9288 sum  14.0000 diff   2.1424
    2   Fe  MulP   8.0712   5.9288 sum  14.0000 diff   2.1424
 Sum of MulP: up   =    16.14245 down          =    11.85755
              total=    28.00000 ideal(neutral)=    28.00000
<DFT>  Total Spin Moment (muB) =  4.284893659428
<DFT>  Mixing_weight= 0.040000000000
<DFT>  Uele   =  -30.438467361564  dUele     =   0.000000003454
<DFT>  NormRD =    0.000000002310  Criterion =   0.000000001000

******************* MD= 1  SCF=28 *******************
<Poisson>  Poisson's equation using FFT...
<Set_Hamiltonian>  Hamiltonian matrix for VNA+dVH+Vxc...
<Band>  Solving the eigenvalue problem...
 KGrids1:  -0.45454  -0.36364  -0.27273  -0.18182  -0.09091   0.00000   0.09091   0.18182   0.27273   0.36364   0.45455 
 KGrids2:  -0.45455  -0.36364  -0.27273  -0.18182  -0.09091  -0.00000   0.09091   0.18182   0.27273   0.36364   0.45454 
 KGrids3:  -0.45454  -0.36363  -0.27273  -0.18182  -0.09091   0.00000   0.09091   0.18182   0.27273   0.36364   0.45455 
<Band_DFT>  Eigen, time=0.179200
<Band_DFT>  DM, time=0.251683
    1   Fe  MulP   8.0712   5.9288 sum  14.0000 diff   2.1424
    2   Fe  MulP   8.0712   5.9288 sum  14.0000 diff   2.1424
 Sum of MulP: up   =    16.14245 down          =    11.85755
              total=    28.00000 ideal(neutral)=    28.00000
<DFT>  Total Spin Moment (muB) =  4.284893659689
<DFT>  Mixing_weight= 0.040000000000
<DFT>  Uele   =  -30.438467362374  dUele     =   0.000000000810
<DFT>  NormRD =    0.000000001028  Criterion =   0.000000001000
<MD= 1>  Force calculation
  Force calculation #1
  Force calculation #2
  Force calculation #3
  Force calculation #4
  Force calculation #5
<MD= 1>  Total Energy
  Force calculation #6
  Force calculation #7

*******************************************************
                  Dipole moment (Debye)                 
*******************************************************

 Absolute D      147.09332512

                      Dx                Dy                Dz
 Total            -84.92437099      -84.92437083      -84.92437074
 Core              93.60153184       93.60153184       93.60153184
 Electron        -178.52590283     -178.52590268     -178.52590259
 Back ground       -0.00000000       -0.00000000       -0.00000000

*******************************************************
                Total Energy (Hartree) at MD = 1        
*******************************************************

  Uele  =     -30.438467362374

  Ukin  =     107.006908032493
  UH0   =   -2668.148949540263
  UH1   =       0.011326686777
  Una   =     -81.692425948737
  Unl   =     -25.514120057438
  Uxc0  =     -15.746866458693
  Uxc1  =     -12.090563727715
  Ucore =    2517.032568157041
  Uhub  =       0.000000000000
  Ucs   =       0.000000000000
  Uzs   =       0.000000000000
  Uzo   =       0.000000000000
  Uef   =       0.000000000000
  UvdW  =       0.000000000000
  Uch   =       0.000000000000
  Utot  =    -179.142122856536

  UpV   =       0.000000000000
  Enpy  =    -179.142122856536
  Note:

  Uele:   band energy
  Ukin:   kinetic energy
  UH0:    electric part of screened Coulomb energy
  UH1:    difference electron-electron Coulomb energy
  Una:    neutral atom potential energy
  Unl:    non-local potential energy
  Uxc0:   exchange-correlation energy for alpha spin
  Uxc1:   exchange-correlation energy for beta spin
  Ucore:  core-core Coulomb energy
  Uhub:   LDA+U energy
  Ucs:    constraint energy for spin orientation
  Uzs:    Zeeman term for spin magnetic moment
  Uzo:    Zeeman term for orbital magnetic moment
  Uef:    electric energy by electric field
  UvdW:   semi-empirical vdW energy 
  Uch:    penalty term to create a core hole
  UpV:    pressure times volume
  Enpy:   Enthalpy = Utot + UpV
  (see also PRB 72, 045121(2005) for the energy contributions)


*******************************************************
           Computational times (s) at MD = 1            
*******************************************************

  DFT in total      =   56.41759

  Set_OLP_Kin       =    1.26961
  Set_Nonlocal      =    1.92162
  Set_ProExpn_VNA   =    5.89033
  Set_Hamiltonian   =   12.95354
  Poisson           =    0.00518
  diagonalization   =   13.31937
  Mixing_DM         =    0.04642
  Force             =    7.57214
  Total_Energy      =    1.74449
  Set_Aden_Grid     =    0.03434
  Set_Orbitals_Grid =    0.38194
  Set_Density_Grid  =   10.88627
  RestartFileDFT    =    0.19358
  Mulliken_Charge   =    0.00994
  FFT(2D)_Density   =    0.03709

The SCF was achieved at MD=   1

*******************************************************
             MD or geometry opt. at MD = 1              
*******************************************************


outputting data on grids to files...


***********************************************************
***********************************************************
               Computational Time (second)                 
***********************************************************
***********************************************************

                               Min_ID   Min_Time       Max_ID   Max_Time
   Total Computational Time =     5       60.854          0       60.872
   readfile                 =    11        2.535          7        2.539
   truncation               =     3        1.749          1        1.857
   MD_pac                   =     0        0.019         11        0.028
   OutData                  =     1        0.000          0        0.012
   DFT                      =     1       56.411          3       56.520

*** In DFT ***

   Set_OLP_Kin              =     9        0.252          1        1.297
   Set_Nonlocal             =     1        1.894          9        2.940
   Set_ProExpn_VNA          =    11        3.241          0        5.890
   Set_Hamiltonian          =     2       12.953         15       12.954
   Poisson                  =     8        0.005          1        0.005
   Diagonalization          =     0       13.319          4       13.321
   Mixing_DM                =     2        0.046          7        0.046
   Force                    =     1        7.572         10        7.572
   Total_Energy             =    15        1.738          0        1.744
   Set_Aden_Grid            =     0        0.034         14        2.681
   Set_Orbitals_Grid        =     2        0.000          0        0.382
   Set_Density_Grid         =     4       10.879         15       10.886
   RestartFileDFT           =     9        0.160         15        0.196
   Mulliken_Charge          =     1        0.010          7        0.010
   FFT(2D)_Density          =    10        0.037          9        0.037
   Others                   =     0        0.152          4        0.683

The calculation was normally finished.
