The number of threads in each node for OpenMP parallelization is 1.


*******************************************************
*******************************************************
 Welcome to OpenMX   Ver. 3.9.9                           
 Copyright (C), 2002-2019, T. Ozaki                    
 OpenMX comes with ABSOLUTELY NO WARRANTY.             
 This is free software, and you are welcome to         
 redistribute it under the constitution of the GNU-GPL.
*******************************************************
*******************************************************



<Input_std>  Your input file was normally read.
<Input_std>  The system includes 3 species and 5 atoms.

*******************************************************
                     PAO and VPS                       
*******************************************************

<SetPara_DFT>  PAOs of species N were normally found.
<SetPara_DFT>  PAOs of species Ni were normally found.
<SetPara_DFT>  PAOs of species Mn were normally found.
<SetPara_DFT>  VPSs of species N were normally found.
               N_PBE19.vps is j-dependent.
               In case of scf.SpinOrbit.Coupling=off,
               j-dependent pseudo potentials are averaged by j-degeneracy,
               which corresponds to a scalar relativistic treatment.
<SetPara_DFT>  VPSs of species Ni were normally found.
               Ni_PBE19H.vps is j-dependent.
               In case of scf.SpinOrbit.Coupling=off,
               j-dependent pseudo potentials are averaged by j-degeneracy,
               which corresponds to a scalar relativistic treatment.
<SetPara_DFT>  VPSs of species Mn were normally found.
               Mn_PBE19.vps is j-dependent.
               In case of scf.SpinOrbit.Coupling=off,
               j-dependent pseudo potentials are averaged by j-degeneracy,
               which corresponds to a scalar relativistic treatment.

*******************************************************
     Fourier transform of PAO and projectors of VNL    
*******************************************************

<FT_PAO>          Fourier transform of pseudo atomic orbitals
<FT_NLP>          Fourier transform of non-local projectors
<FT_ProExpn_VNA>  Fourier transform of VNA separable projectors
<FT_VNA>          Fourier transform of VNA potentials
<FT_ProductPAO>   Fourier transform of product of PAOs

*******************************************************
  Allocation of atoms to processors at MD_iter=    1     
*******************************************************

 proc =   0  # of atoms=   1  estimated weight=         1.00000
 proc =   1  # of atoms=   1  estimated weight=         1.00000
 proc =   2  # of atoms=   1  estimated weight=         1.00000
 proc =   3  # of atoms=   1  estimated weight=         1.00000
 proc =   4  # of atoms=   1  estimated weight=         1.00000
 proc =   5  # of atoms=   0  estimated weight=         0.00000
 proc =   6  # of atoms=   0  estimated weight=         0.00000
 proc =   7  # of atoms=   0  estimated weight=         0.00000
 proc =   8  # of atoms=   0  estimated weight=         0.00000
 proc =   9  # of atoms=   0  estimated weight=         0.00000
 proc =  10  # of atoms=   0  estimated weight=         0.00000
 proc =  11  # of atoms=   0  estimated weight=         0.00000
 proc =  12  # of atoms=   0  estimated weight=         0.00000
 proc =  13  # of atoms=   0  estimated weight=         0.00000
 proc =  14  # of atoms=   0  estimated weight=         0.00000
 proc =  15  # of atoms=   0  estimated weight=         0.00000
 proc =  16  # of atoms=   0  estimated weight=         0.00000
 proc =  17  # of atoms=   0  estimated weight=         0.00000
 proc =  18  # of atoms=   0  estimated weight=         0.00000
 proc =  19  # of atoms=   0  estimated weight=         0.00000
 proc =  20  # of atoms=   0  estimated weight=         0.00000
 proc =  21  # of atoms=   0  estimated weight=         0.00000
 proc =  22  # of atoms=   0  estimated weight=         0.00000
 proc =  23  # of atoms=   0  estimated weight=         0.00000
 proc =  24  # of atoms=   0  estimated weight=         0.00000
 proc =  25  # of atoms=   0  estimated weight=         0.00000
 proc =  26  # of atoms=   0  estimated weight=         0.00000
 proc =  27  # of atoms=   0  estimated weight=         0.00000
 proc =  28  # of atoms=   0  estimated weight=         0.00000
 proc =  29  # of atoms=   0  estimated weight=         0.00000
 proc =  30  # of atoms=   0  estimated weight=         0.00000
 proc =  31  # of atoms=   0  estimated weight=         0.00000
 proc =  32  # of atoms=   0  estimated weight=         0.00000
 proc =  33  # of atoms=   0  estimated weight=         0.00000
 proc =  34  # of atoms=   0  estimated weight=         0.00000
 proc =  35  # of atoms=   0  estimated weight=         0.00000
 proc =  36  # of atoms=   0  estimated weight=         0.00000
 proc =  37  # of atoms=   0  estimated weight=         0.00000
 proc =  38  # of atoms=   0  estimated weight=         0.00000
 proc =  39  # of atoms=   0  estimated weight=         0.00000
 proc =  40  # of atoms=   0  estimated weight=         0.00000
 proc =  41  # of atoms=   0  estimated weight=         0.00000
 proc =  42  # of atoms=   0  estimated weight=         0.00000
 proc =  43  # of atoms=   0  estimated weight=         0.00000
 proc =  44  # of atoms=   0  estimated weight=         0.00000
 proc =  45  # of atoms=   0  estimated weight=         0.00000
 proc =  46  # of atoms=   0  estimated weight=         0.00000
 proc =  47  # of atoms=   0  estimated weight=         0.00000
 proc =  48  # of atoms=   0  estimated weight=         0.00000
 proc =  49  # of atoms=   0  estimated weight=         0.00000
 proc =  50  # of atoms=   0  estimated weight=         0.00000
 proc =  51  # of atoms=   0  estimated weight=         0.00000
 proc =  52  # of atoms=   0  estimated weight=         0.00000
 proc =  53  # of atoms=   0  estimated weight=         0.00000
 proc =  54  # of atoms=   0  estimated weight=         0.00000
 proc =  55  # of atoms=   0  estimated weight=         0.00000
 proc =  56  # of atoms=   0  estimated weight=         0.00000
 proc =  57  # of atoms=   0  estimated weight=         0.00000
 proc =  58  # of atoms=   0  estimated weight=         0.00000
 proc =  59  # of atoms=   0  estimated weight=         0.00000
 proc =  60  # of atoms=   0  estimated weight=         0.00000
 proc =  61  # of atoms=   0  estimated weight=         0.00000
 proc =  62  # of atoms=   0  estimated weight=         0.00000
 proc =  63  # of atoms=   0  estimated weight=         0.00000




*******************************************************
        Analysis of neighbors and setting of grids        
*******************************************************

TFNAN=     412   Average FNAN=  82.40000
TSNAN=       0   Average SNAN=   0.00000
<truncation> CpyCell= 1 ct_AN=   1 FNAN SNAN  85   0
<truncation> CpyCell= 1 ct_AN=   2 FNAN SNAN  85   0
<truncation> CpyCell= 1 ct_AN=   3 FNAN SNAN  85   0
<truncation> CpyCell= 1 ct_AN=   4 FNAN SNAN  74   0
<truncation> CpyCell= 1 ct_AN=   5 FNAN SNAN  83   0
TFNAN=     466   Average FNAN=  93.20000
TSNAN=       0   Average SNAN=   0.00000
<truncation> CpyCell= 2 ct_AN=   1 FNAN SNAN  98   0
<truncation> CpyCell= 2 ct_AN=   2 FNAN SNAN  98   0
<truncation> CpyCell= 2 ct_AN=   3 FNAN SNAN  98   0
<truncation> CpyCell= 2 ct_AN=   4 FNAN SNAN  86   0
<truncation> CpyCell= 2 ct_AN=   5 FNAN SNAN  86   0
TFNAN=     466   Average FNAN=  93.20000
TSNAN=       0   Average SNAN=   0.00000
<truncation> CpyCell= 3 ct_AN=   1 FNAN SNAN  98   0
<truncation> CpyCell= 3 ct_AN=   2 FNAN SNAN  98   0
<truncation> CpyCell= 3 ct_AN=   3 FNAN SNAN  98   0
<truncation> CpyCell= 3 ct_AN=   4 FNAN SNAN  86   0
<truncation> CpyCell= 3 ct_AN=   5 FNAN SNAN  86   0
TFNAN=     466   Average FNAN=  93.20000
TSNAN=       0   Average SNAN=   0.00000
<truncation> CpyCell= 3 ct_AN=   1 FNAN SNAN  98   0
<truncation> CpyCell= 3 ct_AN=   2 FNAN SNAN  98   0
<truncation> CpyCell= 3 ct_AN=   3 FNAN SNAN  98   0
<truncation> CpyCell= 3 ct_AN=   4 FNAN SNAN  86   0
<truncation> CpyCell= 3 ct_AN=   5 FNAN SNAN  86   0
<Check_System> The system is bulk.
lattice vectors (bohr)
A  =  7.253692420174,  0.000000000000,  0.000000000000
B  =  0.000000000000,  7.253692420174,  0.000000000000
C  =  0.000000000000,  0.000000000000,  7.253692420174
reciprocal lattice vectors (bohr^-1)
RA =  0.866205091590,  0.000000000000,  0.000000000000
RB =  0.000000000000,  0.866205091590,  0.000000000000
RC =  0.000000000000,  0.000000000000,  0.866205091590
Grid_Origin  0.000000000000  0.000000000000  0.000000000000
Cell_Volume =    381.660670095358 (Bohr^3)
GridVol     =      0.003053285361 (Bohr^3)
Grid_Origin  0.000000000000  0.000000000000  0.000000000000
Cell_Volume =    381.660670095358 (Bohr^3)
GridVol     =      0.003053285361 (Bohr^3)
<UCell_Box> Info. of cutoff energy and num. of grids
lattice vectors (bohr)
A  =  7.253692420174,  0.000000000000,  0.000000000000
B  =  0.000000000000,  7.253692420174,  0.000000000000
C  =  0.000000000000,  0.000000000000,  7.253692420174
reciprocal lattice vectors (bohr^-1)
RA =  0.866205091590,  0.000000000000,  0.000000000000
RB =  0.000000000000,  0.866205091590,  0.000000000000
RC =  0.000000000000,  0.000000000000,  0.866205091590
Required cutoff energy (Ryd) for 3D-grids = 500.0000
    Used cutoff energy (Ryd) for 3D-grids = 468.9445, 468.9445, 468.9445
Num. of grids of a-, b-, and c-axes = 50, 50, 50
Grid_Origin  0.000000000000  0.000000000000  0.000000000000
Cell_Volume =    381.660670095358 (Bohr^3)
GridVol     =      0.003053285361 (Bohr^3)
Cell vectors (bohr) of the grid cell (gtv)
  gtv_a =  0.145073848403,  0.000000000000,  0.000000000000
  gtv_b =  0.000000000000,  0.145073848403,  0.000000000000
  gtv_c =  0.000000000000,  0.000000000000,  0.145073848403
  |gtv_a| =  0.145073848403
  |gtv_b| =  0.145073848403
  |gtv_c| =  0.145073848403
Num. of grids overlapping with atom    1 = 296699
Num. of grids overlapping with atom    2 = 296699
Num. of grids overlapping with atom    3 = 296699
Num. of grids overlapping with atom    4 = 296699
Num. of grids overlapping with atom    5 = 296699

*******************************************************
             SCF calculation at MD = 1                
*******************************************************

<MD= 1>  Calculation of the overlap matrix
<MD= 1>  Calculation of the nonlocal matrix
<MD= 1>  Calculation of the VNA projector matrix

******************* MD= 1  SCF= 1 *******************
<Band>  Solving the eigenvalue problem...
 KGrids1:  -0.45833  -0.37500  -0.29167  -0.20833  -0.12500  -0.04167   0.04167   0.12500   0.20833   0.29167   0.37500   0.45833 
 KGrids2:  -0.45833  -0.37500  -0.29167  -0.20833  -0.12500  -0.04167   0.04167   0.12500   0.20833   0.29167   0.37500   0.45833 
 KGrids3:  -0.45833  -0.37500  -0.29166  -0.20833  -0.12500  -0.04166   0.04167   0.12500   0.20834   0.29167   0.37500   0.45834 
<Band_DFT>  Eigen, time=0.796344
<Band_DFT>  DM, time=1.184490
    1   Mn  MulP 8.71 5.52 sum 14.23 diff  3.19 (114.10 -26.56)  Ml 0.00 ( 36.50 -11.31)  Ml+s 3.19 (114.10 -26.56)
    2   Mn  MulP 8.71 5.52 sum 14.23 diff  3.19 ( 35.26 225.00)  Ml 0.00 (152.53 -66.08)  Ml+s 3.19 ( 35.26 225.00)
    3   Mn  MulP 8.71 5.52 sum 14.23 diff  3.19 (114.10 116.56)  Ml 0.00 ( 41.02 -68.01)  Ml+s 3.19 (114.10 116.56)
    4   Ni  MulP 9.48 9.48 sum 18.96 diff  0.00 (130.70  45.00)  Ml 0.00 (124.06  28.88)  Ml+s 0.00 (130.70  45.00)
    5    N  MulP 3.18 3.18 sum  6.35 diff  0.00 (130.61  45.00)  Ml 0.00 ( 23.12 235.50)  Ml+s 0.00 (130.61  45.00)
 Sum of MulP: up   =    38.78120 down          =    29.21880
              total=    68.00000 ideal(neutral)=    68.00000
<DFT>  Total Spin Moment    (muB)  0.000383523   Angles  132.391307790    45.001259337
<DFT>  Total Orbital Moment (muB)  0.000000000   Angles   93.736990764   -35.025182888
<DFT>  Total Moment         (muB)  0.000383523   Angles  132.391306392    45.001232140
<DFT>  Mixing_weight= 0.300000000000
<DFT>  Uele   =  -90.826254609281  dUele     =   1.000000000000
<DFT>  NormRD =    1.000000000000  Criterion =   0.000000000100

******************* MD= 1  SCF= 2 *******************
<Poisson>  Poisson's equation using FFT...
<Set_Hamiltonian>  Hamiltonian matrix for VNA+dVH+Vxc...
<Band>  Solving the eigenvalue problem...
 KGrids1:  -0.45833  -0.37500  -0.29167  -0.20833  -0.12500  -0.04167   0.04167   0.12500   0.20833   0.29167   0.37500   0.45833 
 KGrids2:  -0.45833  -0.37500  -0.29167  -0.20833  -0.12500  -0.04167   0.04167   0.12500   0.20833   0.29167   0.37500   0.45833 
 KGrids3:  -0.45833  -0.37500  -0.29166  -0.20833  -0.12500  -0.04166   0.04167   0.12500   0.20834   0.29167   0.37500   0.45834 
<Band_DFT>  Eigen, time=0.691595
<Band_DFT>  DM, time=1.190625
    1   Mn  MulP 8.89 5.81 sum 14.70 diff  3.07 (114.09 -26.57)  Ml 0.00 (137.62 210.80)  Ml+s 3.07 (114.09 -26.57)
    2   Mn  MulP 8.89 5.81 sum 14.70 diff  3.07 ( 35.26 225.00)  Ml 0.00 (156.86  19.54)  Ml+s 3.07 ( 35.26 225.00)
    3   Mn  MulP 8.89 5.81 sum 14.70 diff  3.07 (114.09 116.57)  Ml 0.00 (149.49  32.38)  Ml+s 3.07 (114.09 116.57)
    4   Ni  MulP 8.89 8.89 sum 17.78 diff  0.00 (133.20  45.00)  Ml 0.00 (114.78 133.04)  Ml+s 0.00 (133.20  45.00)
    5    N  MulP 3.06 3.06 sum  6.13 diff  0.00 (131.08  45.00)  Ml 0.00 ( 31.37 161.59)  Ml+s 0.00 (131.08  45.00)
 Sum of MulP: up   =    38.60677 down          =    29.39323
              total=    68.00000 ideal(neutral)=    68.00000
<DFT>  Total Spin Moment    (muB)  0.000219513   Angles  138.579007926    45.001576109
<DFT>  Total Orbital Moment (muB)  0.000000001   Angles  158.211197060   105.258854832
<DFT>  Total Moment         (muB)  0.000219513   Angles  138.579076893    45.001646656
<DFT>  Mixing_weight= 0.147252305453
<DFT>  Uele   =  -89.998820142383  dUele     =   0.827434466898
<DFT>  NormRD =    1.018488853828  Criterion =   0.000000000100

******************* MD= 1  SCF= 3 *******************
<Poisson>  Poisson's equation using FFT...
<Set_Hamiltonian>  Hamiltonian matrix for VNA+dVH+Vxc...
<Band>  Solving the eigenvalue problem...
 KGrids1:  -0.45833  -0.37500  -0.29167  -0.20833  -0.12500  -0.04167   0.04167   0.12500   0.20833   0.29167   0.37500   0.45833 
 KGrids2:  -0.45833  -0.37500  -0.29167  -0.20833  -0.12500  -0.04167   0.04167   0.12500   0.20833   0.29167   0.37500   0.45833 
 KGrids3:  -0.45833  -0.37500  -0.29166  -0.20833  -0.12500  -0.04166   0.04167   0.12500   0.20834   0.29167   0.37500   0.45834 
<Band_DFT>  Eigen, time=0.681561
<Band_DFT>  DM, time=1.177974
    1   Mn  MulP 8.69 5.59 sum 14.27 diff  3.10 (114.10 -26.56)  Ml 0.00 ( 72.40 229.62)  Ml+s 3.10 (114.10 -26.56)
    2   Mn  MulP 8.69 5.59 sum 14.27 diff  3.10 ( 35.26 225.00)  Ml 0.00 (167.20 -85.70)  Ml+s 3.10 ( 35.26 225.00)
    3   Mn  MulP 8.69 5.59 sum 14.27 diff  3.10 (114.10 116.56)  Ml 0.00 (139.65 -35.71)  Ml+s 3.10 (114.10 116.56)
    4   Ni  MulP 9.69 9.69 sum 19.37 diff  0.00 ( 70.18 225.00)  Ml 0.00 (129.17  61.10)  Ml+s 0.00 ( 70.18 225.00)
    5    N  MulP 2.90 2.90 sum  5.81 diff  0.00 ( 49.43 225.00)  Ml 0.00 (116.49 170.31)  Ml+s 0.00 ( 49.43 225.00)
 Sum of MulP: up   =    38.65227 down          =    29.34773
              total=    68.00000 ideal(neutral)=    68.00000
<DFT>  Total Spin Moment    (muB)  0.000105494   Angles   36.979099042    45.000337516
<DFT>  Total Orbital Moment (muB)  0.000000000   Angles  143.414320438   250.760623811
<DFT>  Total Moment         (muB)  0.000105494   Angles   36.979107186    45.000272790
<DFT>  Mixing_weight= 0.352802584637
<DFT>  Uele   =  -89.679775725118  dUele     =   0.319044417265
<DFT>  NormRD =    0.777408772367  Criterion =   0.000000000100

******************* MD= 1  SCF= 4 *******************
<Poisson>  Poisson's equation using FFT...
<Set_Hamiltonian>  Hamiltonian matrix for VNA+dVH+Vxc...
<Band>  Solving the eigenvalue problem...
 KGrids1:  -0.45833  -0.37500  -0.29167  -0.20833  -0.12500  -0.04167   0.04167   0.12500   0.20833   0.29167   0.37500   0.45833 
 KGrids2:  -0.45833  -0.37500  -0.29167  -0.20833  -0.12500  -0.04167   0.04167   0.12500   0.20833   0.29167   0.37500   0.45833 
 KGrids3:  -0.45833  -0.37500  -0.29166  -0.20833  -0.12500  -0.04166   0.04167   0.12500   0.20834   0.29167   0.37500   0.45834 
<Band_DFT>  Eigen, time=0.683010
<Band_DFT>  DM, time=1.195070
    1   Mn  MulP 8.78 5.63 sum 14.41 diff  3.15 (114.10 -26.56)  Ml 0.00 ( 58.40  12.17)  Ml+s 3.15 (114.10 -26.56)
    2   Mn  MulP 8.78 5.63 sum 14.41 diff  3.15 ( 35.26 225.00)  Ml 0.00 (152.25 -15.13)  Ml+s 3.15 ( 35.26 225.00)
    3   Mn  MulP 8.78 5.63 sum 14.41 diff  3.15 (114.10 116.56)  Ml 0.00 (148.38 -13.84)  Ml+s 3.15 (114.10 116.56)
    4   Ni  MulP 9.47 9.47 sum 18.94 diff  0.00 ( 48.25 225.00)  Ml 0.00 ( 65.71  78.97)  Ml+s 0.00 ( 48.25 225.00)
    5    N  MulP 2.91 2.91 sum  5.83 diff  0.00 ( 51.79 225.00)  Ml 0.00 (111.05 230.09)  Ml+s 0.00 ( 51.79 225.00)
 Sum of MulP: up   =    38.71948 down          =    29.28052
              total=    68.00000 ideal(neutral)=    68.00000
<DFT>  Total Spin Moment    (muB)  0.000106620   Angles   59.332124376   225.000209883
<DFT>  Total Orbital Moment (muB)  0.000000000   Angles  124.762100757    13.055546031
<DFT>  Total Moment         (muB)  0.000106620   Angles   59.332139082   225.000264991
<DFT>  Mixing_weight= 0.072330970739
<DFT>  Uele   =  -89.343882819686  dUele     =   0.335892905432
<DFT>  NormRD =    1.530846856933  Criterion =   0.000000000100

******************* MD= 1  SCF= 5 *******************
<Poisson>  Poisson's equation using FFT...
<Set_Hamiltonian>  Hamiltonian matrix for VNA+dVH+Vxc...
<Band>  Solving the eigenvalue problem...
 KGrids1:  -0.45833  -0.37500  -0.29167  -0.20833  -0.12500  -0.04167   0.04167   0.12500   0.20833   0.29167   0.37500   0.45833 
 KGrids2:  -0.45833  -0.37500  -0.29167  -0.20833  -0.12500  -0.04167   0.04167   0.12500   0.20833   0.29167   0.37500   0.45833 
 KGrids3:  -0.45833  -0.37500  -0.29166  -0.20833  -0.12500  -0.04166   0.04167   0.12500   0.20834   0.29167   0.37500   0.45834 
<Band_DFT>  Eigen, time=0.675967
<Band_DFT>  DM, time=1.196883
    1   Mn  MulP 8.89 5.77 sum 14.66 diff  3.12 (114.09 -26.57)  Ml 0.00 ( 63.79 134.67)  Ml+s 3.12 (114.09 -26.57)
    2   Mn  MulP 8.89 5.77 sum 14.66 diff  3.12 ( 35.26 225.00)  Ml 0.00 (163.43  94.87)  Ml+s 3.12 ( 35.26 225.00)
    3   Mn  MulP 8.89 5.77 sum 14.66 diff  3.12 (114.09 116.57)  Ml 0.00 (107.00 224.90)  Ml+s 3.12 (114.09 116.57)
    4   Ni  MulP 9.08 9.08 sum 18.16 diff  0.00 ( 46.85 225.00)  Ml 0.00 (174.30  32.56)  Ml+s 0.00 ( 46.85 225.00)
    5    N  MulP 2.93 2.93 sum  5.86 diff  0.00 (136.27  45.00)  Ml 0.00 ( 86.77 -12.72)  Ml+s 0.00 (136.27  45.00)
 Sum of MulP: up   =    38.67571 down          =    29.32429
              total=    68.00000 ideal(neutral)=    68.00000
<DFT>  Total Spin Moment    (muB)  0.000297786   Angles   46.335450072   225.000504931
<DFT>  Total Orbital Moment (muB)  0.000000000   Angles  157.811457693   158.867633298
<DFT>  Total Moment         (muB)  0.000297785   Angles   46.335501581   225.000473214
<DFT>  Mixing_weight= 0.111388866381
<DFT>  Uele   =  -89.003132698765  dUele     =   0.340750120921
<DFT>  NormRD =    0.906494712336  Criterion =   0.000000000100

******************* MD= 1  SCF= 6 *******************
<Poisson>  Poisson's equation using FFT...
<Set_Hamiltonian>  Hamiltonian matrix for VNA+dVH+Vxc...
<Band>  Solving the eigenvalue problem...
 KGrids1:  -0.45833  -0.37500  -0.29167  -0.20833  -0.12500  -0.04167   0.04167   0.12500   0.20833   0.29167   0.37500   0.45833 
 KGrids2:  -0.45833  -0.37500  -0.29167  -0.20833  -0.12500  -0.04167   0.04167   0.12500   0.20833   0.29167   0.37500   0.45833 
 KGrids3:  -0.45833  -0.37500  -0.29166  -0.20833  -0.12500  -0.04166   0.04167   0.12500   0.20834   0.29167   0.37500   0.45834 
<Band_DFT>  Eigen, time=0.671508
<Band_DFT>  DM, time=1.196069
    1   Mn  MulP 8.87 5.72 sum 14.59 diff  3.14 (114.10 -26.56)  Ml 0.00 ( 75.14 -22.08)  Ml+s 3.14 (114.10 -26.56)
    2   Mn  MulP 8.87 5.72 sum 14.59 diff  3.14 ( 35.26 225.00)  Ml 0.00 (141.29  89.51)  Ml+s 3.14 ( 35.26 225.00)
    3   Mn  MulP 8.87 5.72 sum 14.59 diff  3.14 (114.10 116.56)  Ml 0.00 (161.14 107.98)  Ml+s 3.14 (114.10 116.56)
    4   Ni  MulP 9.18 9.18 sum 18.36 diff  0.00 ( 45.56 225.00)  Ml 0.00 (126.61 173.36)  Ml+s 0.00 ( 45.56 225.00)
    5    N  MulP 2.93 2.93 sum  5.87 diff  0.00 (150.83  45.00)  Ml 0.00 (157.08 -84.96)  Ml+s 0.00 (150.83  45.00)
 Sum of MulP: up   =    38.71421 down          =    29.28579
              total=    68.00000 ideal(neutral)=    68.00000
<DFT>  Total Spin Moment    (muB)  0.000059836   Angles   42.798440389   224.997516734
<DFT>  Total Orbital Moment (muB)  0.000000000   Angles  155.174607187    78.773723860
<DFT>  Total Moment         (muB)  0.000059836   Angles   42.798534622   224.997426947
<DFT>  Mixing_weight= 0.115531249169
<DFT>  Uele   =  -88.971574924876  dUele     =   0.031557773890
<DFT>  NormRD =    0.171648753852  Criterion =   0.000000000100

******************* MD= 1  SCF= 7 *******************
<Poisson>  Poisson's equation using FFT...
<Set_Hamiltonian>  Hamiltonian matrix for VNA+dVH+Vxc...
<Band>  Solving the eigenvalue problem...
 KGrids1:  -0.45833  -0.37500  -0.29167  -0.20833  -0.12500  -0.04167   0.04167   0.12500   0.20833   0.29167   0.37500   0.45833 
 KGrids2:  -0.45833  -0.37500  -0.29167  -0.20833  -0.12500  -0.04167   0.04167   0.12500   0.20833   0.29167   0.37500   0.45833 
 KGrids3:  -0.45833  -0.37500  -0.29166  -0.20833  -0.12500  -0.04166   0.04167   0.12500   0.20834   0.29167   0.37500   0.45834 
<Band_DFT>  Eigen, time=0.676194
<Band_DFT>  DM, time=1.196068
    1   Mn  MulP 8.90 5.76 sum 14.66 diff  3.13 (114.09 -26.57)  Ml 0.00 ( 22.94  71.86)  Ml+s 3.13 (114.09 -26.57)
    2   Mn  MulP 8.90 5.76 sum 14.66 diff  3.13 ( 35.26 225.00)  Ml 0.00 (146.92  47.87)  Ml+s 3.13 ( 35.26 225.00)
    3   Mn  MulP 8.90 5.76 sum 14.66 diff  3.13 (114.09 116.57)  Ml 0.00 ( 60.76 177.92)  Ml+s 3.13 (114.09 116.57)
    4   Ni  MulP 9.07 9.07 sum 18.14 diff  0.00 ( 36.89 225.00)  Ml 0.00 (150.86 222.22)  Ml+s 0.00 ( 36.89 225.00)
    5    N  MulP 2.94 2.94 sum  5.88 diff  0.00 ( 32.52 225.00)  Ml 0.00 ( 92.60 201.36)  Ml+s 0.00 ( 32.52 225.00)
 Sum of MulP: up   =    38.70149 down          =    29.29851
              total=    68.00000 ideal(neutral)=    68.00000
<DFT>  Total Spin Moment    (muB)  0.000128947   Angles   47.767280698   224.999072411
<DFT>  Total Orbital Moment (muB)  0.000000000   Angles  132.564186184    97.377822918
<DFT>  Total Moment         (muB)  0.000128947   Angles   47.767289749   224.999036507
<DFT>  Mixing_weight= 0.193166357308
<DFT>  Uele   =  -88.835739081415  dUele     =   0.135835843460
<DFT>  NormRD =    0.108818814671  Criterion =   0.000000000100

******************* MD= 1  SCF= 8 *******************
<Poisson>  Poisson's equation using FFT...
<Set_Hamiltonian>  Hamiltonian matrix for VNA+dVH+Vxc...
<Band>  Solving the eigenvalue problem...
 KGrids1:  -0.45833  -0.37500  -0.29167  -0.20833  -0.12500  -0.04167   0.04167   0.12500   0.20833   0.29167   0.37500   0.45833 
 KGrids2:  -0.45833  -0.37500  -0.29167  -0.20833  -0.12500  -0.04167   0.04167   0.12500   0.20833   0.29167   0.37500   0.45833 
 KGrids3:  -0.45833  -0.37500  -0.29166  -0.20833  -0.12500  -0.04166   0.04167   0.12500   0.20834   0.29167   0.37500   0.45834 
<Band_DFT>  Eigen, time=0.664297
<Band_DFT>  DM, time=1.198519
    1   Mn  MulP 8.89 5.74 sum 14.63 diff  3.15 (114.09 -26.57)  Ml 0.00 ( 71.93 -89.53)  Ml+s 3.15 (114.09 -26.57)
    2   Mn  MulP 8.89 5.74 sum 14.63 diff  3.15 ( 35.26 225.00)  Ml 0.00 (144.01 156.01)  Ml+s 3.15 ( 35.26 225.00)
    3   Mn  MulP 8.89 5.74 sum 14.63 diff  3.15 (114.09 116.57)  Ml 0.00 ( 33.19  11.97)  Ml+s 3.15 (114.09 116.57)
    4   Ni  MulP 9.12 9.12 sum 18.24 diff  0.00 ( 39.98 225.00)  Ml 0.00 ( 55.51  23.26)  Ml+s 0.00 ( 39.98 225.00)
    5    N  MulP 2.94 2.94 sum  5.88 diff  0.00 ( 34.34 225.00)  Ml 0.00 ( 46.68 175.74)  Ml+s 0.00 ( 34.34 225.00)
 Sum of MulP: up   =    38.72031 down          =    29.27969
              total=    68.00000 ideal(neutral)=    68.00000
<DFT>  Total Spin Moment    (muB)  0.000063877   Angles   45.917197233   224.997469274
<DFT>  Total Orbital Moment (muB)  0.000000000   Angles  142.433790001   151.956538843
<DFT>  Total Moment         (muB)  0.000063877   Angles   45.917256401   224.997399972
<DFT>  Mixing_weight= 0.049424949635
<DFT>  Uele   =  -88.845392618984  dUele     =   0.009653537569
<DFT>  NormRD =    0.185576004521  Criterion =   0.000000000100

******************* MD= 1  SCF= 9 *******************
<Poisson>  Poisson's equation using FFT...
<Set_Hamiltonian>  Hamiltonian matrix for VNA+dVH+Vxc...
<Band>  Solving the eigenvalue problem...
 KGrids1:  -0.45833  -0.37500  -0.29167  -0.20833  -0.12500  -0.04167   0.04167   0.12500   0.20833   0.29167   0.37500   0.45833 
 KGrids2:  -0.45833  -0.37500  -0.29167  -0.20833  -0.12500  -0.04167   0.04167   0.12500   0.20833   0.29167   0.37500   0.45833 
 KGrids3:  -0.45833  -0.37500  -0.29166  -0.20833  -0.12500  -0.04166   0.04167   0.12500   0.20834   0.29167   0.37500   0.45834 
<Band_DFT>  Eigen, time=0.685651
<Band_DFT>  DM, time=1.190055
    1   Mn  MulP 8.89 5.73 sum 14.62 diff  3.15 (114.09 -26.57)  Ml 0.00 ( 25.78 -67.47)  Ml+s 3.15 (114.09 -26.57)
    2   Mn  MulP 8.89 5.73 sum 14.62 diff  3.15 ( 35.26 225.00)  Ml 0.00 (153.26 105.19)  Ml+s 3.15 ( 35.26 225.00)
    3   Mn  MulP 8.89 5.73 sum 14.62 diff  3.15 (114.09 116.57)  Ml 0.00 (121.75 218.38)  Ml+s 3.15 (114.09 116.57)
    4   Ni  MulP 9.13 9.13 sum 18.27 diff  0.00 (141.21  45.00)  Ml 0.00 ( 40.27  94.02)  Ml+s 0.00 (141.21  45.00)
    5    N  MulP 2.94 2.94 sum  5.88 diff  0.00 (147.16  45.00)  Ml 0.00 ( 81.36 152.22)  Ml+s 0.00 (147.16  45.00)
 Sum of MulP: up   =    38.72832 down          =    29.27168
              total=    68.00000 ideal(neutral)=    68.00000
<DFT>  Total Spin Moment    (muB)  0.000020422   Angles   45.345952440   224.990588327
<DFT>  Total Orbital Moment (muB)  0.000000000   Angles  134.292000134   117.202319188
<DFT>  Total Moment         (muB)  0.000020421   Angles   45.346070863   224.990257596
<DFT>  Mixing_weight= 0.053875318341
<DFT>  Uele   =  -88.840483514037  dUele     =   0.004909104947
<DFT>  NormRD =    0.053336546490  Criterion =   0.000000000100

******************* MD= 1  SCF=10 *******************
<Poisson>  Poisson's equation using FFT...
<Set_Hamiltonian>  Hamiltonian matrix for VNA+dVH+Vxc...
<Band>  Solving the eigenvalue problem...
 KGrids1:  -0.45833  -0.37500  -0.29167  -0.20833  -0.12500  -0.04167   0.04167   0.12500   0.20833   0.29167   0.37500   0.45833 
 KGrids2:  -0.45833  -0.37500  -0.29167  -0.20833  -0.12500  -0.04167   0.04167   0.12500   0.20833   0.29167   0.37500   0.45833 
 KGrids3:  -0.45833  -0.37500  -0.29166  -0.20833  -0.12500  -0.04166   0.04167   0.12500   0.20834   0.29167   0.37500   0.45834 
<Band_DFT>  Eigen, time=0.671788
<Band_DFT>  DM, time=1.196214
    1   Mn  MulP 8.89 5.73 sum 14.62 diff  3.16 (114.09 -26.57)  Ml 0.00 ( 56.37 -44.57)  Ml+s 3.16 (114.09 -26.57)
    2   Mn  MulP 8.89 5.73 sum 14.62 diff  3.16 ( 35.26 225.00)  Ml 0.00 (144.40 109.77)  Ml+s 3.16 ( 35.26 225.00)
    3   Mn  MulP 8.89 5.73 sum 14.62 diff  3.16 (114.09 116.57)  Ml 0.00 ( 76.98 241.16)  Ml+s 3.16 (114.09 116.57)
    4   Ni  MulP 9.14 9.14 sum 18.28 diff  0.00 ( 41.11 225.00)  Ml 0.00 (  9.85 110.05)  Ml+s 0.00 ( 41.11 225.00)
    5    N  MulP 2.94 2.94 sum  5.88 diff  0.00 ( 34.57 225.00)  Ml 0.00 ( 84.64 -76.01)  Ml+s 0.00 ( 34.57 225.00)
 Sum of MulP: up   =    38.73422 down          =    29.26578
              total=    68.00000 ideal(neutral)=    68.00000
<DFT>  Total Spin Moment    (muB)  0.000066875   Angles   31.167688610   224.999943256
<DFT>  Total Orbital Moment (muB)  0.000000000   Angles  119.226214549   121.077512650
<DFT>  Total Moment         (muB)  0.000066875   Angles   31.167691147   224.999886389
<DFT>  Mixing_weight= 0.063658108935
<DFT>  Uele   =  -88.830754635672  dUele     =   0.009728878365
<DFT>  NormRD =    0.020908814232  Criterion =   0.000000000100

******************* MD= 1  SCF=11 *******************
<Poisson>  Poisson's equation using FFT...
<Set_Hamiltonian>  Hamiltonian matrix for VNA+dVH+Vxc...
<Band>  Solving the eigenvalue problem...
 KGrids1:  -0.45833  -0.37500  -0.29167  -0.20833  -0.12500  -0.04167   0.04167   0.12500   0.20833   0.29167   0.37500   0.45833 
 KGrids2:  -0.45833  -0.37500  -0.29167  -0.20833  -0.12500  -0.04167   0.04167   0.12500   0.20833   0.29167   0.37500   0.45833 
 KGrids3:  -0.45833  -0.37500  -0.29166  -0.20833  -0.12500  -0.04166   0.04167   0.12500   0.20834   0.29167   0.37500   0.45834 
<Band_DFT>  Eigen, time=0.666653
<Band_DFT>  DM, time=1.186772
    1   Mn  MulP 8.89 5.73 sum 14.62 diff  3.16 (114.09 -26.57)  Ml 0.00 ( 58.21  64.62)  Ml+s 3.16 (114.09 -26.57)
    2   Mn  MulP 8.89 5.73 sum 14.62 diff  3.16 ( 35.26 225.00)  Ml 0.00 (158.29  99.32)  Ml+s 3.16 ( 35.26 225.00)
    3   Mn  MulP 8.89 5.73 sum 14.62 diff  3.16 (114.09 116.57)  Ml 0.00 (102.71 248.85)  Ml+s 3.16 (114.09 116.57)
    4   Ni  MulP 9.14 9.14 sum 18.28 diff  0.00 (137.88  45.00)  Ml 0.00 ( 52.37  69.23)  Ml+s 0.00 (137.87  45.00)
    5    N  MulP 2.94 2.94 sum  5.88 diff  0.00 (141.74  45.00)  Ml 0.00 (106.24 186.66)  Ml+s 0.00 (141.74  45.00)
 Sum of MulP: up   =    38.74372 down          =    29.25628
              total=    68.00000 ideal(neutral)=    68.00000
<DFT>  Total Spin Moment    (muB)  0.000012080   Angles  165.799062412    45.068610853
<DFT>  Total Orbital Moment (muB)  0.000000000   Angles  122.149578996    84.949637937
<DFT>  Total Moment         (muB)  0.000012080   Angles  165.798723644    45.070112187
<DFT>  Mixing_weight= 0.125306238832
<DFT>  Uele   =  -88.811863753006  dUele     =   0.018890882667
<DFT>  NormRD =    0.014665707204  Criterion =   0.000000000100

******************* MD= 1  SCF=12 *******************
<Poisson>  Poisson's equation using FFT...
<Set_Hamiltonian>  Hamiltonian matrix for VNA+dVH+Vxc...
<Band>  Solving the eigenvalue problem...
 KGrids1:  -0.45833  -0.37500  -0.29167  -0.20833  -0.12500  -0.04167   0.04167   0.12500   0.20833   0.29167   0.37500   0.45833 
 KGrids2:  -0.45833  -0.37500  -0.29167  -0.20833  -0.12500  -0.04167   0.04167   0.12500   0.20833   0.29167   0.37500   0.45833 
 KGrids3:  -0.45833  -0.37500  -0.29166  -0.20833  -0.12500  -0.04166   0.04167   0.12500   0.20834   0.29167   0.37500   0.45834 
<Band_DFT>  Eigen, time=0.681597
<Band_DFT>  DM, time=1.191420
    1   Mn  MulP 8.90 5.72 sum 14.62 diff  3.18 (114.10 -26.56)  Ml 0.00 ( 46.63 -53.24)  Ml+s 3.18 (114.10 -26.56)
    2   Mn  MulP 8.90 5.72 sum 14.62 diff  3.18 ( 35.26 225.00)  Ml 0.00 (167.21  85.21)  Ml+s 3.18 ( 35.26 225.00)
    3   Mn  MulP 8.90 5.72 sum 14.62 diff  3.18 (114.10 116.56)  Ml 0.00 ( 87.75 256.27)  Ml+s 3.18 (114.10 116.56)
    4   Ni  MulP 9.14 9.14 sum 18.27 diff  0.00 ( 46.29 225.00)  Ml 0.00 ( 61.80  28.23)  Ml+s 0.00 ( 46.29 225.00)
    5    N  MulP 2.94 2.94 sum  5.88 diff  0.00 ( 37.44 225.00)  Ml 0.00 (107.68 181.69)  Ml+s 0.00 ( 37.44 225.00)
 Sum of MulP: up   =    38.76540 down          =    29.23460
              total=    68.00000 ideal(neutral)=    68.00000
<DFT>  Total Spin Moment    (muB)  0.000126454   Angles   35.857197066   225.001951016
<DFT>  Total Orbital Moment (muB)  0.000000000   Angles  102.954409847   -35.003477151
<DFT>  Total Moment         (muB)  0.000126454   Angles   35.857196850   225.002012415
<DFT>  Mixing_weight= 0.319858388469
<DFT>  Uele   =  -88.775893219544  dUele     =   0.035970533462
<DFT>  NormRD =    0.011437790951  Criterion =   0.000000000100

******************* MD= 1  SCF=13 *******************
<Poisson>  Poisson's equation using FFT...
<Set_Hamiltonian>  Hamiltonian matrix for VNA+dVH+Vxc...
<Band>  Solving the eigenvalue problem...
 KGrids1:  -0.45833  -0.37500  -0.29167  -0.20833  -0.12500  -0.04167   0.04167   0.12500   0.20833   0.29167   0.37500   0.45833 
 KGrids2:  -0.45833  -0.37500  -0.29167  -0.20833  -0.12500  -0.04167   0.04167   0.12500   0.20833   0.29167   0.37500   0.45833 
 KGrids3:  -0.45833  -0.37500  -0.29166  -0.20833  -0.12500  -0.04166   0.04167   0.12500   0.20834   0.29167   0.37500   0.45834 
<Band_DFT>  Eigen, time=0.681939
<Band_DFT>  DM, time=1.191102
    1   Mn  MulP 8.90 5.71 sum 14.61 diff  3.19 (114.09 -26.57)  Ml 0.00 ( 79.20  38.37)  Ml+s 3.19 (114.09 -26.57)
    2   Mn  MulP 8.90 5.71 sum 14.61 diff  3.19 ( 35.27 225.00)  Ml 0.00 (155.39  39.81)  Ml+s 3.19 ( 35.27 225.00)
    3   Mn  MulP 8.90 5.71 sum 14.61 diff  3.19 (114.09 116.57)  Ml 0.00 (151.00 268.22)  Ml+s 3.19 (114.09 116.57)
    4   Ni  MulP 9.14 9.14 sum 18.28 diff  0.00 (133.46  45.00)  Ml 0.00 (117.56  66.02)  Ml+s 0.00 (133.46  45.00)
    5    N  MulP 2.94 2.94 sum  5.88 diff  0.00 (139.91  45.00)  Ml 0.00 ( 83.02 227.15)  Ml+s 0.00 (139.91  45.00)
 Sum of MulP: up   =    38.79029 down          =    29.20971
              total=    68.00000 ideal(neutral)=    68.00000
<DFT>  Total Spin Moment    (muB)  0.000199001   Angles   49.291505854   224.996680518
<DFT>  Total Orbital Moment (muB)  0.000000000   Angles  139.285326951    35.591077656
<DFT>  Total Moment         (muB)  0.000199001   Angles   49.291517140   224.996690767
<DFT>  Mixing_weight= 0.400000000000
<DFT>  Uele   =  -88.765680352393  dUele     =   0.010212867151
<DFT>  NormRD =    0.007634229003  Criterion =   0.000000000100

******************* MD= 1  SCF=14 *******************
<Poisson>  Poisson's equation using FFT...
<Set_Hamiltonian>  Hamiltonian matrix for VNA+dVH+Vxc...
<Band>  Solving the eigenvalue problem...
 KGrids1:  -0.45833  -0.37500  -0.29167  -0.20833  -0.12500  -0.04167   0.04167   0.12500   0.20833   0.29167   0.37500   0.45833 
 KGrids2:  -0.45833  -0.37500  -0.29167  -0.20833  -0.12500  -0.04167   0.04167   0.12500   0.20833   0.29167   0.37500   0.45833 
 KGrids3:  -0.45833  -0.37500  -0.29166  -0.20833  -0.12500  -0.04166   0.04167   0.12500   0.20834   0.29167   0.37500   0.45834 
<Band_DFT>  Eigen, time=0.680572
<Band_DFT>  DM, time=1.191742
    1   Mn  MulP 8.91 5.71 sum 14.62 diff  3.19 (114.09 -26.57)  Ml 0.00 ( 88.10  32.34)  Ml+s 3.19 (114.09 -26.57)
    2   Mn  MulP 8.91 5.71 sum 14.62 diff  3.19 ( 35.26 225.00)  Ml 0.00 (133.22  38.19)  Ml+s 3.19 ( 35.26 225.00)
    3   Mn  MulP 8.91 5.71 sum 14.62 diff  3.19 (114.09 116.57)  Ml 0.00 ( 74.20 258.76)  Ml+s 3.19 (114.09 116.57)
    4   Ni  MulP 9.13 9.13 sum 18.27 diff  0.00 (119.93  45.00)  Ml 0.00 ( 39.20  58.18)  Ml+s 0.00 (119.93  45.00)
    5    N  MulP 2.94 2.94 sum  5.88 diff  0.00 (145.41  45.00)  Ml 0.00 ( 74.41 246.08)  Ml+s 0.00 (145.41  45.00)
 Sum of MulP: up   =    38.79224 down          =    29.20776
              total=    68.00000 ideal(neutral)=    68.00000
<DFT>  Total Spin Moment    (muB)  0.000120053   Angles  130.089065101    45.001927738
<DFT>  Total Orbital Moment (muB)  0.000000000   Angles   81.700964657    23.180229752
<DFT>  Total Moment         (muB)  0.000120053   Angles  130.089001384    45.001884099
<DFT>  Mixing_weight= 0.085154382601
<DFT>  Uele   =  -88.761880608371  dUele     =   0.003799744022
<DFT>  NormRD =    0.014679474444  Criterion =   0.000000000100

******************* MD= 1  SCF=15 *******************
<Poisson>  Poisson's equation using FFT...
<Set_Hamiltonian>  Hamiltonian matrix for VNA+dVH+Vxc...
<Band>  Solving the eigenvalue problem...
 KGrids1:  -0.45833  -0.37500  -0.29167  -0.20833  -0.12500  -0.04167   0.04167   0.12500   0.20833   0.29167   0.37500   0.45833 
 KGrids2:  -0.45833  -0.37500  -0.29167  -0.20833  -0.12500  -0.04167   0.04167   0.12500   0.20833   0.29167   0.37500   0.45833 
 KGrids3:  -0.45833  -0.37500  -0.29166  -0.20833  -0.12500  -0.04166   0.04167   0.12500   0.20834   0.29167   0.37500   0.45834 
<Band_DFT>  Eigen, time=0.651017
<Band_DFT>  DM, time=1.187410
    1   Mn  MulP 8.91 5.71 sum 14.62 diff  3.20 (114.10 -26.56)  Ml 0.00 ( 79.67  49.84)  Ml+s 3.20 (114.10 -26.56)
    2   Mn  MulP 8.91 5.71 sum 14.62 diff  3.20 ( 35.26 225.00)  Ml 0.00 (134.26  19.03)  Ml+s 3.20 ( 35.26 225.00)
    3   Mn  MulP 8.91 5.71 sum 14.62 diff  3.20 (114.10 116.56)  Ml 0.00 ( 78.78 254.27)  Ml+s 3.20 (114.10 116.56)
    4   Ni  MulP 9.14 9.14 sum 18.27 diff  0.00 (134.99  45.00)  Ml 0.00 ( 27.24 139.25)  Ml+s 0.00 (134.99  45.00)
    5    N  MulP 2.94 2.94 sum  5.88 diff  0.00 ( 28.89 225.06)  Ml 0.00 (110.99 229.47)  Ml+s 0.00 ( 28.89 225.06)
 Sum of MulP: up   =    38.79663 down          =    29.20337
              total=    68.00000 ideal(neutral)=    68.00000
<DFT>  Total Spin Moment    (muB)  0.000050476   Angles  141.482614754    45.009825572
<DFT>  Total Orbital Moment (muB)  0.000000000   Angles   54.942324739   -39.546117392
<DFT>  Total Moment         (muB)  0.000050476   Angles  141.482588322    45.009742922
<DFT>  Mixing_weight= 0.095039514097
<DFT>  Uele   =  -88.761596005236  dUele     =   0.000284603135
<DFT>  NormRD =    0.004734233007  Criterion =   0.000000000100

******************* MD= 1  SCF=16 *******************
<Poisson>  Poisson's equation using FFT...
<Set_Hamiltonian>  Hamiltonian matrix for VNA+dVH+Vxc...
<Band>  Solving the eigenvalue problem...
 KGrids1:  -0.45833  -0.37500  -0.29167  -0.20833  -0.12500  -0.04167   0.04167   0.12500   0.20833   0.29167   0.37500   0.45833 
 KGrids2:  -0.45833  -0.37500  -0.29167  -0.20833  -0.12500  -0.04167   0.04167   0.12500   0.20833   0.29167   0.37500   0.45833 
 KGrids3:  -0.45833  -0.37500  -0.29166  -0.20833  -0.12500  -0.04166   0.04167   0.12500   0.20834   0.29167   0.37500   0.45834 
<Band_DFT>  Eigen, time=0.682550
<Band_DFT>  DM, time=1.197037
    1   Mn  MulP 8.91 5.71 sum 14.62 diff  3.20 (114.09 -26.57)  Ml 0.00 ( 25.44 -28.52)  Ml+s 3.20 (114.09 -26.57)
    2   Mn  MulP 8.91 5.71 sum 14.62 diff  3.20 ( 35.26 225.00)  Ml 0.00 (137.30  52.88)  Ml+s 3.20 ( 35.26 225.00)
    3   Mn  MulP 8.91 5.71 sum 14.62 diff  3.20 (114.09 116.57)  Ml 0.00 ( 95.59 235.92)  Ml+s 3.20 (114.09 116.57)
    4   Ni  MulP 9.13 9.13 sum 18.27 diff  0.00 ( 39.96 225.00)  Ml 0.00 ( 63.07  18.64)  Ml+s 0.00 ( 39.96 225.00)
    5    N  MulP 2.94 2.94 sum  5.88 diff  0.00 ( 35.13 224.99)  Ml 0.00 ( 42.75 218.69)  Ml+s 0.00 ( 35.13 224.99)
 Sum of MulP: up   =    38.80508 down          =    29.19492
              total=    68.00000 ideal(neutral)=    68.00000
<DFT>  Total Spin Moment    (muB)  0.000153728   Angles   36.029891199   224.998507040
<DFT>  Total Orbital Moment (muB)  0.000000000   Angles   79.984908275     9.407169010
<DFT>  Total Moment         (muB)  0.000153728   Angles   36.029858384   224.998549677
<DFT>  Mixing_weight= 0.211250839749
<DFT>  Uele   =  -88.759512839876  dUele     =   0.002083165360
<DFT>  NormRD =    0.003511354155  Criterion =   0.000000000100

******************* MD= 1  SCF=17 *******************
<Poisson>  Poisson's equation using FFT...
<Set_Hamiltonian>  Hamiltonian matrix for VNA+dVH+Vxc...
<Band>  Solving the eigenvalue problem...
 KGrids1:  -0.45833  -0.37500  -0.29167  -0.20833  -0.12500  -0.04167   0.04167   0.12500   0.20833   0.29167   0.37500   0.45833 
 KGrids2:  -0.45833  -0.37500  -0.29167  -0.20833  -0.12500  -0.04167   0.04167   0.12500   0.20833   0.29167   0.37500   0.45833 
 KGrids3:  -0.45833  -0.37500  -0.29166  -0.20833  -0.12500  -0.04166   0.04167   0.12500   0.20834   0.29167   0.37500   0.45834 
<Band_DFT>  Eigen, time=0.682244
<Band_DFT>  DM, time=1.195166
    1   Mn  MulP 8.91 5.70 sum 14.62 diff  3.21 (114.10 -26.56)  Ml 0.00 ( 22.91  65.95)  Ml+s 3.21 (114.10 -26.56)
    2   Mn  MulP 8.91 5.70 sum 14.61 diff  3.21 ( 35.26 225.00)  Ml 0.00 (159.25 -30.28)  Ml+s 3.21 ( 35.26 225.00)
    3   Mn  MulP 8.91 5.70 sum 14.62 diff  3.21 (114.10 116.56)  Ml 0.00 (136.98 -83.71)  Ml+s 3.21 (114.10 116.56)
    4   Ni  MulP 9.14 9.14 sum 18.27 diff  0.00 (140.52  45.00)  Ml 0.00 (116.95  55.89)  Ml+s 0.00 (140.52  45.00)
    5    N  MulP 2.94 2.94 sum  5.88 diff  0.00 (144.49  45.00)  Ml 0.00 ( 91.13 183.56)  Ml+s 0.00 (144.49  45.00)
 Sum of MulP: up   =    38.82032 down          =    29.17968
              total=    68.00000 ideal(neutral)=    68.00000
<DFT>  Total Spin Moment    (muB)  0.000274947   Angles  144.589842518    45.011598024
<DFT>  Total Orbital Moment (muB)  0.000000000   Angles  149.987739697    -3.469975873
<DFT>  Total Moment         (muB)  0.000274947   Angles  144.589850911    45.011574592
<DFT>  Mixing_weight= 0.400000000000
<DFT>  Uele   =  -88.758371534285  dUele     =   0.001141305591
<DFT>  NormRD =    0.003445131467  Criterion =   0.000000000100

******************* MD= 1  SCF=18 *******************
<Poisson>  Poisson's equation using FFT...
<Set_Hamiltonian>  Hamiltonian matrix for VNA+dVH+Vxc...
<Band>  Solving the eigenvalue problem...
 KGrids1:  -0.45833  -0.37500  -0.29167  -0.20833  -0.12500  -0.04167   0.04167   0.12500   0.20833   0.29167   0.37500   0.45833 
 KGrids2:  -0.45833  -0.37500  -0.29167  -0.20833  -0.12500  -0.04167   0.04167   0.12500   0.20833   0.29167   0.37500   0.45833 
 KGrids3:  -0.45833  -0.37500  -0.29166  -0.20833  -0.12500  -0.04166   0.04167   0.12500   0.20834   0.29167   0.37500   0.45834 
<Band_DFT>  Eigen, time=0.674031
<Band_DFT>  DM, time=1.192575
    1   Mn  MulP 8.92 5.70 sum 14.62 diff  3.21 (114.09 -26.57)  Ml 0.00 ( 73.54  48.50)  Ml+s 3.21 (114.09 -26.57)
    2   Mn  MulP 8.92 5.70 sum 14.62 diff  3.21 ( 35.26 225.00)  Ml 0.00 (140.63  65.54)  Ml+s 3.21 ( 35.26 225.00)
    3   Mn  MulP 8.92 5.70 sum 14.62 diff  3.21 (114.09 116.57)  Ml 0.00 ( 96.19 269.92)  Ml+s 3.21 (114.09 116.57)
    4   Ni  MulP 9.13 9.13 sum 18.27 diff  0.00 (134.45  45.00)  Ml 0.00 ( 56.34  93.10)  Ml+s 0.00 (134.45  45.00)
    5    N  MulP 2.94 2.94 sum  5.88 diff  0.00 (145.17  45.00)  Ml 0.00 (102.88 238.86)  Ml+s 0.00 (145.17  45.00)
 Sum of MulP: up   =    38.82162 down          =    29.17838
              total=    68.00000 ideal(neutral)=    68.00000
<DFT>  Total Spin Moment    (muB)  0.000088585   Angles  139.959970704    45.006137493
<DFT>  Total Orbital Moment (muB)  0.000000000   Angles  111.549566106    49.874104955
<DFT>  Total Moment         (muB)  0.000088585   Angles  139.959929430    45.006148194
<DFT>  Mixing_weight= 0.076310831746
<DFT>  Uele   =  -88.756821017800  dUele     =   0.001550516486
<DFT>  NormRD =    0.007095398456  Criterion =   0.000000000100

******************* MD= 1  SCF=19 *******************
<Poisson>  Poisson's equation using FFT...
<Set_Hamiltonian>  Hamiltonian matrix for VNA+dVH+Vxc...
<Band>  Solving the eigenvalue problem...
 KGrids1:  -0.45833  -0.37500  -0.29167  -0.20833  -0.12500  -0.04167   0.04167   0.12500   0.20833   0.29167   0.37500   0.45833 
 KGrids2:  -0.45833  -0.37500  -0.29167  -0.20833  -0.12500  -0.04167   0.04167   0.12500   0.20833   0.29167   0.37500   0.45833 
 KGrids3:  -0.45833  -0.37500  -0.29166  -0.20833  -0.12500  -0.04166   0.04167   0.12500   0.20834   0.29167   0.37500   0.45834 
<Band_DFT>  Eigen, time=0.671525
<Band_DFT>  DM, time=1.196790
    1   Mn  MulP 8.92 5.70 sum 14.62 diff  3.22 (114.10 -26.56)  Ml 0.00 ( 37.73 -13.08)  Ml+s 3.22 (114.10 -26.56)
    2   Mn  MulP 8.92 5.70 sum 14.62 diff  3.22 ( 35.26 225.00)  Ml 0.00 (121.14  55.81)  Ml+s 3.22 ( 35.26 225.00)
    3   Mn  MulP 8.92 5.70 sum 14.62 diff  3.22 (114.10 116.56)  Ml 0.00 (102.27 239.32)  Ml+s 3.22 (114.10 116.56)
    4   Ni  MulP 9.13 9.13 sum 18.27 diff  0.00 (137.35  45.00)  Ml 0.00 ( 49.57 124.03)  Ml+s 0.00 (137.35  45.00)
    5    N  MulP 2.94 2.94 sum  5.88 diff  0.00 (145.06  45.00)  Ml 0.00 (100.20 261.24)  Ml+s 0.00 (145.06  45.00)
 Sum of MulP: up   =    38.82386 down          =    29.17614
              total=    68.00000 ideal(neutral)=    68.00000
<DFT>  Total Spin Moment    (muB)  0.000077383   Angles  143.251484361    45.009083496
<DFT>  Total Orbital Moment (muB)  0.000000000   Angles   73.974583837   232.195782009
<DFT>  Total Moment         (muB)  0.000077383   Angles  143.251508156    45.009075512
<DFT>  Mixing_weight= 0.083878406472
<DFT>  Uele   =  -88.756522599311  dUele     =   0.000298418488
<DFT>  NormRD =    0.002131228733  Criterion =   0.000000000100

******************* MD= 1  SCF=20 *******************
<Poisson>  Poisson's equation using FFT...
<Set_Hamiltonian>  Hamiltonian matrix for VNA+dVH+Vxc...
<Band>  Solving the eigenvalue problem...
 KGrids1:  -0.45833  -0.37500  -0.29167  -0.20833  -0.12500  -0.04167   0.04167   0.12500   0.20833   0.29167   0.37500   0.45833 
 KGrids2:  -0.45833  -0.37500  -0.29167  -0.20833  -0.12500  -0.04167   0.04167   0.12500   0.20833   0.29167   0.37500   0.45833 
 KGrids3:  -0.45833  -0.37500  -0.29166  -0.20833  -0.12500  -0.04166   0.04167   0.12500   0.20834   0.29167   0.37500   0.45834 
<Band_DFT>  Eigen, time=0.678136
<Band_DFT>  DM, time=1.191718
    1   Mn  MulP 8.92 5.70 sum 14.62 diff  3.22 (114.09 -26.57)  Ml 0.00 ( 70.91 -33.07)  Ml+s 3.22 (114.09 -26.57)
    2   Mn  MulP 8.92 5.70 sum 14.62 diff  3.22 ( 35.26 225.00)  Ml 0.00 (158.45  13.52)  Ml+s 3.22 ( 35.26 225.00)
    3   Mn  MulP 8.92 5.70 sum 14.62 diff  3.22 (114.09 116.57)  Ml 0.00 ( 74.21 264.98)  Ml+s 3.22 (114.09 116.57)
    4   Ni  MulP 9.13 9.13 sum 18.27 diff  0.00 ( 40.22 225.00)  Ml 0.00 (114.81  53.35)  Ml+s 0.00 ( 40.22 225.00)
    5    N  MulP 2.94 2.94 sum  5.88 diff  0.00 ( 34.81 225.00)  Ml 0.00 ( 76.37 221.58)  Ml+s 0.00 ( 34.81 225.00)
 Sum of MulP: up   =    38.83418 down          =    29.16582
              total=    68.00000 ideal(neutral)=    68.00000
<DFT>  Total Spin Moment    (muB)  0.000288047   Angles   36.953054485   224.999578992
<DFT>  Total Orbital Moment (muB)  0.000000000   Angles  116.314231093   -34.404236951
<DFT>  Total Moment         (muB)  0.000288047   Angles   36.953059139   224.999629611
<DFT>  Mixing_weight= 0.400000000000
<DFT>  Uele   =  -88.754834133248  dUele     =   0.001688466063
<DFT>  NormRD =    0.001962293004  Criterion =   0.000000000100

******************* MD= 1  SCF=21 *******************
<Poisson>  Poisson's equation using FFT...
<Set_Hamiltonian>  Hamiltonian matrix for VNA+dVH+Vxc...
<Band>  Solving the eigenvalue problem...
 KGrids1:  -0.45833  -0.37500  -0.29167  -0.20833  -0.12500  -0.04167   0.04167   0.12500   0.20833   0.29167   0.37500   0.45833 
 KGrids2:  -0.45833  -0.37500  -0.29167  -0.20833  -0.12500  -0.04167   0.04167   0.12500   0.20833   0.29167   0.37500   0.45833 
 KGrids3:  -0.45833  -0.37500  -0.29166  -0.20833  -0.12500  -0.04166   0.04167   0.12500   0.20834   0.29167   0.37500   0.45834 
<Band_DFT>  Eigen, time=0.677867
<Band_DFT>  DM, time=1.193736
    1   Mn  MulP 8.92 5.69 sum 14.62 diff  3.23 (114.10 -26.56)  Ml 0.00 ( 32.37  88.27)  Ml+s 3.23 (114.10 -26.56)
    2   Mn  MulP 8.92 5.69 sum 14.62 diff  3.23 ( 35.26 225.00)  Ml 0.00 (133.77  50.00)  Ml+s 3.23 ( 35.26 225.00)
    3   Mn  MulP 8.92 5.69 sum 14.62 diff  3.23 (114.10 116.56)  Ml 0.00 (149.64 266.75)  Ml+s 3.23 (114.10 116.56)
    4   Ni  MulP 9.14 9.14 sum 18.27 diff  0.00 (138.87  45.00)  Ml 0.00 ( 99.72  57.65)  Ml+s 0.00 (138.87  45.00)
    5    N  MulP 2.94 2.94 sum  5.88 diff  0.00 (145.07  45.00)  Ml 0.00 (102.36 225.48)  Ml+s 0.00 (145.07  45.00)
 Sum of MulP: up   =    38.84220 down          =    29.15780
              total=    68.00000 ideal(neutral)=    68.00000
<DFT>  Total Spin Moment    (muB)  0.000254617   Angles  142.672623755    45.003524759
<DFT>  Total Orbital Moment (muB)  0.000000000   Angles  116.848575827    56.760411060
<DFT>  Total Moment         (muB)  0.000254618   Angles  142.672611093    45.003533782
<DFT>  Mixing_weight= 0.400000000000
<DFT>  Uele   =  -88.753704438459  dUele     =   0.001129694788
<DFT>  NormRD =    0.001569080630  Criterion =   0.000000000100

******************* MD= 1  SCF=22 *******************
<Poisson>  Poisson's equation using FFT...
<Set_Hamiltonian>  Hamiltonian matrix for VNA+dVH+Vxc...
<Band>  Solving the eigenvalue problem...
 KGrids1:  -0.45833  -0.37500  -0.29167  -0.20833  -0.12500  -0.04167   0.04167   0.12500   0.20833   0.29167   0.37500   0.45833 
 KGrids2:  -0.45833  -0.37500  -0.29167  -0.20833  -0.12500  -0.04167   0.04167   0.12500   0.20833   0.29167   0.37500   0.45833 
 KGrids3:  -0.45833  -0.37500  -0.29166  -0.20833  -0.12500  -0.04166   0.04167   0.12500   0.20834   0.29167   0.37500   0.45834 
<Band_DFT>  Eigen, time=0.662037
<Band_DFT>  DM, time=1.192504
    1   Mn  MulP 8.92 5.69 sum 14.62 diff  3.23 (114.09 -26.57)  Ml 0.00 ( 46.22  47.24)  Ml+s 3.23 (114.09 -26.57)
    2   Mn  MulP 8.92 5.69 sum 14.62 diff  3.23 ( 35.26 225.00)  Ml 0.00 ( 97.72  68.34)  Ml+s 3.23 ( 35.26 225.00)
    3   Mn  MulP 8.92 5.69 sum 14.62 diff  3.23 (114.09 116.57)  Ml 0.00 ( 84.03 262.16)  Ml+s 3.23 (114.09 116.57)
    4   Ni  MulP 9.13 9.13 sum 18.27 diff  0.00 ( 31.08 225.00)  Ml 0.00 (142.49 115.42)  Ml+s 0.00 ( 31.08 225.00)
    5    N  MulP 2.94 2.94 sum  5.88 diff  0.00 ( 34.78 225.01)  Ml 0.00 ( 69.55 250.58)  Ml+s 0.00 ( 34.78 225.01)
 Sum of MulP: up   =    38.84417 down          =    29.15583
              total=    68.00000 ideal(neutral)=    68.00000
<DFT>  Total Spin Moment    (muB)  0.000170561   Angles   33.782744666   224.998390331
<DFT>  Total Orbital Moment (muB)  0.000000000   Angles  140.680798543    96.331991233
<DFT>  Total Moment         (muB)  0.000170561   Angles   33.782747548   224.998364974
<DFT>  Mixing_weight= 0.141870283494
<DFT>  Uele   =  -88.753005272400  dUele     =   0.000699166059
<DFT>  NormRD =    0.002116501327  Criterion =   0.000000000100

******************* MD= 1  SCF=23 *******************
<Poisson>  Poisson's equation using FFT...
<Set_Hamiltonian>  Hamiltonian matrix for VNA+dVH+Vxc...
<Band>  Solving the eigenvalue problem...
 KGrids1:  -0.45833  -0.37500  -0.29167  -0.20833  -0.12500  -0.04167   0.04167   0.12500   0.20833   0.29167   0.37500   0.45833 
 KGrids2:  -0.45833  -0.37500  -0.29167  -0.20833  -0.12500  -0.04167   0.04167   0.12500   0.20833   0.29167   0.37500   0.45833 
 KGrids3:  -0.45833  -0.37500  -0.29166  -0.20833  -0.12500  -0.04166   0.04167   0.12500   0.20834   0.29167   0.37500   0.45834 
<Band_DFT>  Eigen, time=0.668857
<Band_DFT>  DM, time=1.197892
    1   Mn  MulP 8.92 5.69 sum 14.62 diff  3.23 (114.09 -26.56)  Ml 0.00 ( 28.54  32.31)  Ml+s 3.23 (114.09 -26.56)
    2   Mn  MulP 8.92 5.69 sum 14.62 diff  3.23 ( 35.26 225.00)  Ml 0.00 (158.98  59.27)  Ml+s 3.23 ( 35.26 225.00)
    3   Mn  MulP 8.92 5.69 sum 14.62 diff  3.23 (114.09 116.56)  Ml 0.00 (104.01 241.00)  Ml+s 3.23 (114.09 116.56)
    4   Ni  MulP 9.13 9.13 sum 18.27 diff  0.00 (138.91  45.00)  Ml 0.00 (103.86 106.01)  Ml+s 0.00 (138.91  45.00)
    5    N  MulP 2.94 2.94 sum  5.88 diff  0.00 (144.27  44.99)  Ml 0.00 ( 90.61 254.58)  Ml+s 0.00 (144.27  44.99)
 Sum of MulP: up   =    38.84525 down          =    29.15475
              total=    68.00000 ideal(neutral)=    68.00000
<DFT>  Total Spin Moment    (muB)  0.000055861   Angles  143.624076756    45.018705173
<DFT>  Total Orbital Moment (muB)  0.000000000   Angles  149.389802277   197.289452250
<DFT>  Total Moment         (muB)  0.000055861   Angles  143.624152308    45.018739732
<DFT>  Mixing_weight= 0.069359141418
<DFT>  Uele   =  -88.752972355336  dUele     =   0.000032917064
<DFT>  NormRD =    0.002164058833  Criterion =   0.000000000100

******************* MD= 1  SCF=24 *******************
<Poisson>  Poisson's equation using FFT...
<Set_Hamiltonian>  Hamiltonian matrix for VNA+dVH+Vxc...
<Band>  Solving the eigenvalue problem...
 KGrids1:  -0.45833  -0.37500  -0.29167  -0.20833  -0.12500  -0.04167   0.04167   0.12500   0.20833   0.29167   0.37500   0.45833 
 KGrids2:  -0.45833  -0.37500  -0.29167  -0.20833  -0.12500  -0.04167   0.04167   0.12500   0.20833   0.29167   0.37500   0.45833 
 KGrids3:  -0.45833  -0.37500  -0.29166  -0.20833  -0.12500  -0.04166   0.04167   0.12500   0.20834   0.29167   0.37500   0.45834 
<Band_DFT>  Eigen, time=0.680726
<Band_DFT>  DM, time=1.203076
    1   Mn  MulP 8.92 5.69 sum 14.62 diff  3.23 (114.09 -26.57)  Ml 0.00 ( 55.41 -61.96)  Ml+s 3.23 (114.09 -26.57)
    2   Mn  MulP 8.92 5.69 sum 14.62 diff  3.23 ( 35.26 225.00)  Ml 0.00 (103.94  29.50)  Ml+s 3.23 ( 35.26 225.00)
    3   Mn  MulP 8.92 5.69 sum 14.62 diff  3.23 (114.09 116.57)  Ml 0.00 ( 98.71 240.44)  Ml+s 3.23 (114.09 116.57)
    4   Ni  MulP 9.13 9.13 sum 18.27 diff  0.00 ( 31.71 225.01)  Ml 0.00 (100.04 -30.49)  Ml+s 0.00 ( 31.71 225.02)
    5    N  MulP 2.94 2.94 sum  5.88 diff  0.00 ( 35.24 225.01)  Ml 0.00 ( 73.18 227.62)  Ml+s 0.00 ( 35.24 225.01)
 Sum of MulP: up   =    38.84653 down          =    29.15347
              total=    68.00000 ideal(neutral)=    68.00000
<DFT>  Total Spin Moment    (muB)  0.000010185   Angles   40.287980756   224.895962247
<DFT>  Total Orbital Moment (muB)  0.000000000   Angles   92.296364840   -45.819952545
<DFT>  Total Moment         (muB)  0.000010185   Angles   40.288005347   224.897034371
<DFT>  Mixing_weight= 0.091320705693
<DFT>  Uele   =  -88.752755679092  dUele     =   0.000216676244
<DFT>  NormRD =    0.001061246008  Criterion =   0.000000000100

******************* MD= 1  SCF=25 *******************
<Poisson>  Poisson's equation using FFT...
<Set_Hamiltonian>  Hamiltonian matrix for VNA+dVH+Vxc...
<Band>  Solving the eigenvalue problem...
 KGrids1:  -0.45833  -0.37500  -0.29167  -0.20833  -0.12500  -0.04167   0.04167   0.12500   0.20833   0.29167   0.37500   0.45833 
 KGrids2:  -0.45833  -0.37500  -0.29167  -0.20833  -0.12500  -0.04167   0.04167   0.12500   0.20833   0.29167   0.37500   0.45833 
 KGrids3:  -0.45833  -0.37500  -0.29166  -0.20833  -0.12500  -0.04166   0.04167   0.12500   0.20834   0.29167   0.37500   0.45834 
<Band_DFT>  Eigen, time=0.676506
<Band_DFT>  DM, time=1.202468
    1   Mn  MulP 8.93 5.69 sum 14.62 diff  3.23 (114.09 -26.57)  Ml 0.00 ( 75.06  62.71)  Ml+s 3.23 (114.09 -26.57)
    2   Mn  MulP 8.93 5.69 sum 14.62 diff  3.23 ( 35.26 225.00)  Ml 0.00 (102.20  89.87)  Ml+s 3.23 ( 35.26 225.00)
    3   Mn  MulP 8.93 5.69 sum 14.62 diff  3.23 (114.09 116.57)  Ml 0.00 ( 95.98 249.73)  Ml+s 3.23 (114.09 116.57)
    4   Ni  MulP 9.13 9.13 sum 18.27 diff  0.00 ( 38.71 225.02)  Ml 0.00 (135.79 148.65)  Ml+s 0.00 ( 38.71 225.02)
    5    N  MulP 2.94 2.94 sum  5.88 diff  0.00 (145.17  45.01)  Ml 0.00 ( 82.02 266.43)  Ml+s 0.00 (145.17  45.01)
 Sum of MulP: up   =    38.85198 down          =    29.14802
              total=    68.00000 ideal(neutral)=    68.00000
<DFT>  Total Spin Moment    (muB)  0.000058160   Angles   42.689261986   225.012454264
<DFT>  Total Orbital Moment (muB)  0.000000000   Angles  104.018751334    92.589625832
<DFT>  Total Moment         (muB)  0.000058160   Angles   42.689221407   225.012318980
<DFT>  Mixing_weight= 0.400000000000
<DFT>  Uele   =  -88.751793474404  dUele     =   0.000962204688
<DFT>  NormRD =    0.001010543779  Criterion =   0.000000000100

******************* MD= 1  SCF=26 *******************
<Poisson>  Poisson's equation using FFT...
<Set_Hamiltonian>  Hamiltonian matrix for VNA+dVH+Vxc...
<Band>  Solving the eigenvalue problem...
 KGrids1:  -0.45833  -0.37500  -0.29167  -0.20833  -0.12500  -0.04167   0.04167   0.12500   0.20833   0.29167   0.37500   0.45833 
 KGrids2:  -0.45833  -0.37500  -0.29167  -0.20833  -0.12500  -0.04167   0.04167   0.12500   0.20833   0.29167   0.37500   0.45833 
 KGrids3:  -0.45833  -0.37500  -0.29166  -0.20833  -0.12500  -0.04166   0.04167   0.12500   0.20834   0.29167   0.37500   0.45834 
<Band_DFT>  Eigen, time=0.679079
<Band_DFT>  DM, time=1.191417
    1   Mn  MulP 8.93 5.69 sum 14.62 diff  3.24 (114.10 -26.56)  Ml 0.00 ( 59.20 158.78)  Ml+s 3.24 (114.10 -26.56)
    2   Mn  MulP 8.93 5.69 sum 14.62 diff  3.24 ( 35.26 225.00)  Ml 0.00 ( 97.81 -38.74)  Ml+s 3.24 ( 35.26 225.00)
    3   Mn  MulP 8.93 5.69 sum 14.62 diff  3.24 (114.10 116.56)  Ml 0.00 (109.35 -79.12)  Ml+s 3.24 (114.10 116.56)
    4   Ni  MulP 9.13 9.13 sum 18.27 diff  0.00 ( 88.88  45.11)  Ml 0.00 (102.45  78.93)  Ml+s 0.00 ( 88.88  45.11)
    5    N  MulP 2.94 2.94 sum  5.88 diff  0.00 ( 35.45 225.00)  Ml 0.00 ( 57.50 207.93)  Ml+s 0.00 ( 35.45 225.00)
 Sum of MulP: up   =    38.85612 down          =    29.14388
              total=    68.00000 ideal(neutral)=    68.00000
<DFT>  Total Spin Moment    (muB)  0.000603507   Angles  143.935911764    45.015018553
<DFT>  Total Orbital Moment (muB)  0.000000000   Angles  117.937636864    -1.881465479
<DFT>  Total Moment         (muB)  0.000603507   Angles  143.935909484    45.015006779
<DFT>  Mixing_weight= 0.400000000000
<DFT>  Uele   =  -88.751051857848  dUele     =   0.000741616556
<DFT>  NormRD =    0.000900525481  Criterion =   0.000000000100

******************* MD= 1  SCF=27 *******************
<Poisson>  Poisson's equation using FFT...
<Set_Hamiltonian>  Hamiltonian matrix for VNA+dVH+Vxc...
<Band>  Solving the eigenvalue problem...
 KGrids1:  -0.45833  -0.37500  -0.29167  -0.20833  -0.12500  -0.04167   0.04167   0.12500   0.20833   0.29167   0.37500   0.45833 
 KGrids2:  -0.45833  -0.37500  -0.29167  -0.20833  -0.12500  -0.04167   0.04167   0.12500   0.20833   0.29167   0.37500   0.45833 
 KGrids3:  -0.45833  -0.37500  -0.29166  -0.20833  -0.12500  -0.04166   0.04167   0.12500   0.20834   0.29167   0.37500   0.45834 
<Band_DFT>  Eigen, time=0.676316
<Band_DFT>  DM, time=1.195832
    1   Mn  MulP 8.93 5.69 sum 14.62 diff  3.24 (114.09 -26.57)  Ml 0.00 ( 31.60  65.45)  Ml+s 3.24 (114.09 -26.57)
    2   Mn  MulP 8.93 5.69 sum 14.62 diff  3.24 ( 35.26 225.00)  Ml 0.00 (108.03  16.56)  Ml+s 3.24 ( 35.26 225.00)
    3   Mn  MulP 8.93 5.69 sum 14.62 diff  3.24 (114.09 116.57)  Ml 0.00 (126.83 -51.34)  Ml+s 3.24 (114.09 116.57)
    4   Ni  MulP 9.13 9.13 sum 18.27 diff  0.00 (146.49  44.99)  Ml 0.00 (119.33 159.74)  Ml+s 0.00 (146.49  44.99)
    5    N  MulP 2.94 2.94 sum  5.88 diff  0.00 (144.72  45.01)  Ml 0.00 ( 88.41 230.34)  Ml+s 0.00 (144.72  45.01)
 Sum of MulP: up   =    38.85692 down          =    29.14308
              total=    68.00000 ideal(neutral)=    68.00000
<DFT>  Total Spin Moment    (muB)  0.000099758   Angles   39.861264944   225.015418021
<DFT>  Total Orbital Moment (muB)  0.000000000   Angles   81.788920721    39.156550535
<DFT>  Total Moment         (muB)  0.000099758   Angles   39.861208096   225.015428597
<DFT>  Mixing_weight= 0.102772905224
<DFT>  Uele   =  -88.750831264785  dUele     =   0.000220593062
<DFT>  NormRD =    0.001531443178  Criterion =   0.000000000100

******************* MD= 1  SCF=28 *******************
<Poisson>  Poisson's equation using FFT...
<Set_Hamiltonian>  Hamiltonian matrix for VNA+dVH+Vxc...
<Band>  Solving the eigenvalue problem...
 KGrids1:  -0.45833  -0.37500  -0.29167  -0.20833  -0.12500  -0.04167   0.04167   0.12500   0.20833   0.29167   0.37500   0.45833 
 KGrids2:  -0.45833  -0.37500  -0.29167  -0.20833  -0.12500  -0.04167   0.04167   0.12500   0.20833   0.29167   0.37500   0.45833 
 KGrids3:  -0.45833  -0.37500  -0.29166  -0.20833  -0.12500  -0.04166   0.04167   0.12500   0.20834   0.29167   0.37500   0.45834 
<Band_DFT>  Eigen, time=0.676015
<Band_DFT>  DM, time=1.203278
    1   Mn  MulP 8.93 5.69 sum 14.62 diff  3.24 (114.10 -26.56)  Ml 0.00 (125.30  87.10)  Ml+s 3.24 (114.10 -26.56)
    2   Mn  MulP 8.93 5.69 sum 14.62 diff  3.24 ( 35.26 225.00)  Ml 0.00 (119.49  50.06)  Ml+s 3.24 ( 35.26 225.00)
    3   Mn  MulP 8.93 5.69 sum 14.62 diff  3.24 (114.10 116.56)  Ml 0.00 ( 73.23 258.39)  Ml+s 3.24 (114.10 116.56)
    4   Ni  MulP 9.13 9.13 sum 18.27 diff  0.00 ( 35.26 225.01)  Ml 0.00 (147.85  68.30)  Ml+s 0.00 ( 35.26 225.00)
    5    N  MulP 2.94 2.94 sum  5.88 diff  0.00 ( 34.16 225.04)  Ml 0.00 ( 68.69 257.01)  Ml+s 0.00 ( 34.16 225.04)
 Sum of MulP: up   =    38.85814 down          =    29.14186
              total=    68.00000 ideal(neutral)=    68.00000
<DFT>  Total Spin Moment    (muB)  0.000169629   Angles  143.821533162    45.021399097
<DFT>  Total Orbital Moment (muB)  0.000000000   Angles  152.444077893     8.788257471
<DFT>  Total Moment         (muB)  0.000169629   Angles  143.821542484    45.021379659
<DFT>  Mixing_weight= 0.157912650747
<DFT>  Uele   =  -88.750618794687  dUele     =   0.000212470099
<DFT>  NormRD =    0.000904950459  Criterion =   0.000000000100

******************* MD= 1  SCF=29 *******************
<Poisson>  Poisson's equation using FFT...
<Set_Hamiltonian>  Hamiltonian matrix for VNA+dVH+Vxc...
<Band>  Solving the eigenvalue problem...
 KGrids1:  -0.45833  -0.37500  -0.29167  -0.20833  -0.12500  -0.04167   0.04167   0.12500   0.20833   0.29167   0.37500   0.45833 
 KGrids2:  -0.45833  -0.37500  -0.29167  -0.20833  -0.12500  -0.04167   0.04167   0.12500   0.20833   0.29167   0.37500   0.45833 
 KGrids3:  -0.45833  -0.37500  -0.29166  -0.20833  -0.12500  -0.04166   0.04167   0.12500   0.20834   0.29167   0.37500   0.45834 
<Band_DFT>  Eigen, time=0.679554
<Band_DFT>  DM, time=1.191287
    1   Mn  MulP 8.93 5.69 sum 14.62 diff  3.24 (114.10 -26.56)  Ml 0.00 ( 25.68 -18.55)  Ml+s 3.24 (114.10 -26.56)
    2   Mn  MulP 8.93 5.69 sum 14.62 diff  3.24 ( 35.26 225.00)  Ml 0.00 (144.12  32.15)  Ml+s 3.24 ( 35.26 225.00)
    3   Mn  MulP 8.93 5.69 sum 14.62 diff  3.24 (114.10 116.56)  Ml 0.00 (108.59 244.69)  Ml+s 3.24 (114.10 116.56)
    4   Ni  MulP 9.13 9.13 sum 18.27 diff  0.00 (144.42  44.99)  Ml 0.00 (132.58 127.23)  Ml+s 0.00 (144.42  44.99)
    5    N  MulP 2.94 2.94 sum  5.88 diff  0.00 ( 35.80 225.02)  Ml 0.00 ( 93.26 249.77)  Ml+s 0.00 ( 35.80 225.02)
 Sum of MulP: up   =    38.85859 down          =    29.14141
              total=    68.00000 ideal(neutral)=    68.00000
<DFT>  Total Spin Moment    (muB)  0.000035541   Angles  144.996263589    45.032671486
<DFT>  Total Orbital Moment (muB)  0.000000000   Angles  157.503345848   -78.984358796
<DFT>  Total Moment         (muB)  0.000035542   Angles  144.996372259    45.032586302
<DFT>  Mixing_weight= 0.068743632253
<DFT>  Uele   =  -88.750502715827  dUele     =   0.000116078860
<DFT>  NormRD =    0.001030660329  Criterion =   0.000000000100

******************* MD= 1  SCF=30 *******************
<Poisson>  Poisson's equation using FFT...
<Set_Hamiltonian>  Hamiltonian matrix for VNA+dVH+Vxc...
<Band>  Solving the eigenvalue problem...
 KGrids1:  -0.45833  -0.37500  -0.29167  -0.20833  -0.12500  -0.04167   0.04167   0.12500   0.20833   0.29167   0.37500   0.45833 
 KGrids2:  -0.45833  -0.37500  -0.29167  -0.20833  -0.12500  -0.04167   0.04167   0.12500   0.20833   0.29167   0.37500   0.45833 
 KGrids3:  -0.45833  -0.37500  -0.29166  -0.20833  -0.12500  -0.04166   0.04167   0.12500   0.20834   0.29167   0.37500   0.45834 
<Band_DFT>  Eigen, time=0.674449
<Band_DFT>  DM, time=1.189966
    1   Mn  MulP 8.93 5.69 sum 14.62 diff  3.24 (114.09 -26.57)  Ml 0.00 ( 24.07 -67.61)  Ml+s 3.24 (114.09 -26.57)
    2   Mn  MulP 8.93 5.69 sum 14.62 diff  3.24 ( 35.26 225.00)  Ml 0.00 (117.85  52.48)  Ml+s 3.24 ( 35.26 225.00)
    3   Mn  MulP 8.93 5.69 sum 14.62 diff  3.24 (114.09 116.57)  Ml 0.00 (116.14 242.23)  Ml+s 3.24 (114.09 116.57)
    4   Ni  MulP 9.13 9.13 sum 18.27 diff  0.00 ( 93.66  45.19)  Ml 0.00 (113.35 -42.66)  Ml+s 0.00 ( 93.66  45.19)
    5    N  MulP 2.94 2.94 sum  5.88 diff  0.00 ( 33.00 224.99)  Ml 0.00 ( 46.47 229.62)  Ml+s 0.00 ( 33.00 224.99)
 Sum of MulP: up   =    38.85932 down          =    29.14068
              total=    68.00000 ideal(neutral)=    68.00000
<DFT>  Total Spin Moment    (muB)  0.000075415   Angles   34.258713009   224.954161951
<DFT>  Total Orbital Moment (muB)  0.000000000   Angles  122.041415760   -80.087817965
<DFT>  Total Moment         (muB)  0.000075415   Angles   34.258782894   224.954284871
<DFT>  Mixing_weight= 0.102354058341
<DFT>  Uele   =  -88.750357630299  dUele     =   0.000145085528
<DFT>  NormRD =    0.000590608966  Criterion =   0.000000000100

******************* MD= 1  SCF=31 *******************
<Poisson>  Poisson's equation using FFT...
<Set_Hamiltonian>  Hamiltonian matrix for VNA+dVH+Vxc...
<Band>  Solving the eigenvalue problem...
 KGrids1:  -0.45833  -0.37500  -0.29167  -0.20833  -0.12500  -0.04167   0.04167   0.12500   0.20833   0.29167   0.37500   0.45833 
 KGrids2:  -0.45833  -0.37500  -0.29167  -0.20833  -0.12500  -0.04167   0.04167   0.12500   0.20833   0.29167   0.37500   0.45833 
 KGrids3:  -0.45833  -0.37500  -0.29166  -0.20833  -0.12500  -0.04166   0.04167   0.12500   0.20834   0.29167   0.37500   0.45834 
<Band_DFT>  Eigen, time=0.680840
<Band_DFT>  DM, time=1.194282
    1   Mn  MulP 8.93 5.69 sum 14.62 diff  3.24 (114.10 -26.56)  Ml 0.00 ( 31.52  76.00)  Ml+s 3.24 (114.10 -26.56)
    2   Mn  MulP 8.93 5.69 sum 14.62 diff  3.24 ( 35.26 225.00)  Ml 0.00 (103.74  42.86)  Ml+s 3.24 ( 35.26 225.00)
    3   Mn  MulP 8.93 5.69 sum 14.62 diff  3.24 (114.10 116.56)  Ml 0.00 ( 23.36 -44.73)  Ml+s 3.24 (114.10 116.56)
    4   Ni  MulP 9.13 9.13 sum 18.27 diff  0.00 (166.36 226.09)  Ml 0.00 (108.98  93.25)  Ml+s 0.00 (166.36 226.09)
    5    N  MulP 2.94 2.94 sum  5.88 diff  0.00 (147.42  44.99)  Ml 0.00 (124.54 240.72)  Ml+s 0.00 (147.42  44.99)
 Sum of MulP: up   =    38.86208 down          =    29.13792
              total=    68.00000 ideal(neutral)=    68.00000
<DFT>  Total Spin Moment    (muB)  0.000222757   Angles  172.203766762    43.922514636
<DFT>  Total Orbital Moment (muB)  0.000000001   Angles   41.113100307    45.083392472
<DFT>  Total Moment         (muB)  0.000222756   Angles  172.203655000    43.922529202
<DFT>  Mixing_weight= 0.400000000000
<DFT>  Uele   =  -88.749824717123  dUele     =   0.000532913175
<DFT>  NormRD =    0.000578570662  Criterion =   0.000000000100

******************* MD= 1  SCF=32 *******************
<Poisson>  Poisson's equation using FFT...
<Set_Hamiltonian>  Hamiltonian matrix for VNA+dVH+Vxc...
<Band>  Solving the eigenvalue problem...
 KGrids1:  -0.45833  -0.37500  -0.29167  -0.20833  -0.12500  -0.04167   0.04167   0.12500   0.20833   0.29167   0.37500   0.45833 
 KGrids2:  -0.45833  -0.37500  -0.29167  -0.20833  -0.12500  -0.04167   0.04167   0.12500   0.20833   0.29167   0.37500   0.45833 
 KGrids3:  -0.45833  -0.37500  -0.29166  -0.20833  -0.12500  -0.04166   0.04167   0.12500   0.20834   0.29167   0.37500   0.45834 
<Band_DFT>  Eigen, time=0.681795
<Band_DFT>  DM, time=1.192424
    1   Mn  MulP 8.93 5.69 sum 14.62 diff  3.24 (114.09 -26.57)  Ml 0.00 (167.72 -10.09)  Ml+s 3.24 (114.09 -26.57)
    2   Mn  MulP 8.93 5.69 sum 14.62 diff  3.24 ( 35.26 225.00)  Ml 0.00 (157.07 -11.94)  Ml+s 3.24 ( 35.26 225.00)
    3   Mn  MulP 8.93 5.69 sum 14.62 diff  3.24 (114.09 116.57)  Ml 0.00 ( 96.01 234.33)  Ml+s 3.24 (114.09 116.57)
    4   Ni  MulP 9.13 9.13 sum 18.27 diff  0.00 (  0.95  53.68)  Ml 0.00 ( 94.68  84.23)  Ml+s 0.00 (  0.95  53.68)
    5    N  MulP 2.94 2.94 sum  5.88 diff  0.00 ( 33.89 225.03)  Ml 0.00 ( 14.77 234.71)  Ml+s 0.00 ( 33.89 225.03)
 Sum of MulP: up   =    38.86408 down          =    29.13592
              total=    68.00000 ideal(neutral)=    68.00000
<DFT>  Total Spin Moment    (muB)  0.000159641   Angles    2.230535718   220.794744910
<DFT>  Total Orbital Moment (muB)  0.000000000   Angles  157.050426896   228.314780239
<DFT>  Total Moment         (muB)  0.000159641   Angles    2.230556719   220.794810144
<DFT>  Mixing_weight= 0.400000000000
<DFT>  Uele   =  -88.749374443984  dUele     =   0.000450273139
<DFT>  NormRD =    0.000558058939  Criterion =   0.000000000100

******************* MD= 1  SCF=33 *******************
<Poisson>  Poisson's equation using FFT...
<Set_Hamiltonian>  Hamiltonian matrix for VNA+dVH+Vxc...
<Band>  Solving the eigenvalue problem...
 KGrids1:  -0.45833  -0.37500  -0.29167  -0.20833  -0.12500  -0.04167   0.04167   0.12500   0.20833   0.29167   0.37500   0.45833 
 KGrids2:  -0.45833  -0.37500  -0.29167  -0.20833  -0.12500  -0.04167   0.04167   0.12500   0.20833   0.29167   0.37500   0.45833 
 KGrids3:  -0.45833  -0.37500  -0.29166  -0.20833  -0.12500  -0.04166   0.04167   0.12500   0.20834   0.29167   0.37500   0.45834 
<Band_DFT>  Eigen, time=0.647205
<Band_DFT>  DM, time=1.199770
    1   Mn  MulP 8.93 5.69 sum 14.62 diff  3.24 (114.10 -26.56)  Ml 0.00 ( 57.67  20.41)  Ml+s 3.24 (114.10 -26.56)
    2   Mn  MulP 8.93 5.69 sum 14.62 diff  3.24 ( 35.26 225.00)  Ml 0.00 ( 52.87 -13.48)  Ml+s 3.24 ( 35.26 225.00)
    3   Mn  MulP 8.93 5.69 sum 14.62 diff  3.24 (114.10 116.56)  Ml 0.00 (133.39 257.53)  Ml+s 3.24 (114.10 116.56)
    4   Ni  MulP 9.13 9.13 sum 18.27 diff  0.00 ( 71.81  45.23)  Ml 0.00 (114.41 140.45)  Ml+s 0.00 ( 71.81  45.23)
    5    N  MulP 2.94 2.94 sum  5.88 diff  0.00 ( 74.13  45.22)  Ml 0.00 ( 15.26 268.13)  Ml+s 0.00 ( 74.13  45.22)
 Sum of MulP: up   =    38.86447 down          =    29.13553
              total=    68.00000 ideal(neutral)=    68.00000
<DFT>  Total Spin Moment    (muB)  0.000037091   Angles   11.285928167    45.235649264
<DFT>  Total Orbital Moment (muB)  0.000000000   Angles   84.844243152    -8.069894681
<DFT>  Total Moment         (muB)  0.000037091   Angles   11.285991862    45.235190090
<DFT>  Mixing_weight= 0.113179782312
<DFT>  Uele   =  -88.749285911586  dUele     =   0.000088532398
<DFT>  NormRD =    0.000888383579  Criterion =   0.000000000100

******************* MD= 1  SCF=34 *******************
<Poisson>  Poisson's equation using FFT...
<Set_Hamiltonian>  Hamiltonian matrix for VNA+dVH+Vxc...
<Band>  Solving the eigenvalue problem...
 KGrids1:  -0.45833  -0.37500  -0.29167  -0.20833  -0.12500  -0.04167   0.04167   0.12500   0.20833   0.29167   0.37500   0.45833 
 KGrids2:  -0.45833  -0.37500  -0.29167  -0.20833  -0.12500  -0.04167   0.04167   0.12500   0.20833   0.29167   0.37500   0.45833 
 KGrids3:  -0.45833  -0.37500  -0.29166  -0.20833  -0.12500  -0.04166   0.04167   0.12500   0.20834   0.29167   0.37500   0.45834 
<Band_DFT>  Eigen, time=0.684876
<Band_DFT>  DM, time=1.196268
    1   Mn  MulP 8.93 5.69 sum 14.62 diff  3.24 (114.09 -26.57)  Ml 0.00 (120.00   6.60)  Ml+s 3.24 (114.09 -26.57)
    2   Mn  MulP 8.93 5.69 sum 14.62 diff  3.24 ( 35.26 225.00)  Ml 0.00 (167.95 -29.46)  Ml+s 3.24 ( 35.26 225.00)
    3   Mn  MulP 8.93 5.69 sum 14.62 diff  3.24 (114.09 116.57)  Ml 0.00 (108.00 259.74)  Ml+s 3.24 (114.09 116.57)
    4   Ni  MulP 9.13 9.13 sum 18.27 diff  0.00 ( 69.93 225.12)  Ml 0.00 (111.79  72.10)  Ml+s 0.00 ( 69.93 225.12)
    5    N  MulP 2.94 2.94 sum  5.88 diff  0.00 (162.07  45.16)  Ml 0.00 ( 61.11 263.61)  Ml+s 0.00 (162.07  45.16)
 Sum of MulP: up   =    38.86551 down          =    29.13449
              total=    68.00000 ideal(neutral)=    68.00000
<DFT>  Total Spin Moment    (muB)  0.000065087   Angles  124.211574213   224.965785228
<DFT>  Total Orbital Moment (muB)  0.000000000   Angles  151.812826352     4.200074574
<DFT>  Total Moment         (muB)  0.000065087   Angles  124.211770434   224.965863917
<DFT>  Mixing_weight= 0.249746555632
<DFT>  Uele   =  -88.749056443952  dUele     =   0.000229467634
<DFT>  NormRD =    0.000656936349  Criterion =   0.000000000100

******************* MD= 1  SCF=35 *******************
<Poisson>  Poisson's equation using FFT...
<Set_Hamiltonian>  Hamiltonian matrix for VNA+dVH+Vxc...
<Band>  Solving the eigenvalue problem...
 KGrids1:  -0.45833  -0.37500  -0.29167  -0.20833  -0.12500  -0.04167   0.04167   0.12500   0.20833   0.29167   0.37500   0.45833 
 KGrids2:  -0.45833  -0.37500  -0.29167  -0.20833  -0.12500  -0.04167   0.04167   0.12500   0.20833   0.29167   0.37500   0.45833 
 KGrids3:  -0.45833  -0.37500  -0.29166  -0.20833  -0.12500  -0.04166   0.04167   0.12500   0.20834   0.29167   0.37500   0.45834 
<Band_DFT>  Eigen, time=0.680006
<Band_DFT>  DM, time=1.198340
    1   Mn  MulP 8.93 5.69 sum 14.62 diff  3.24 (114.09 -26.57)  Ml 0.00 (110.44 -22.52)  Ml+s 3.24 (114.09 -26.57)
    2   Mn  MulP 8.93 5.69 sum 14.62 diff  3.24 ( 35.26 225.00)  Ml 0.00 (158.00   6.32)  Ml+s 3.24 ( 35.26 225.00)
    3   Mn  MulP 8.93 5.69 sum 14.62 diff  3.24 (114.09 116.57)  Ml 0.00 ( 91.79 244.70)  Ml+s 3.24 (114.09 116.57)
    4   Ni  MulP 9.13 9.13 sum 18.27 diff  0.00 ( 86.83 225.18)  Ml 0.00 (116.08  37.53)  Ml+s 0.00 ( 86.83 225.18)
    5    N  MulP 2.94 2.94 sum  5.88 diff  0.00 (158.48  45.13)  Ml 0.00 ( 55.78 254.39)  Ml+s 0.00 (158.48  45.13)
 Sum of MulP: up   =    38.86564 down          =    29.13436
              total=    68.00000 ideal(neutral)=    68.00000
<DFT>  Total Spin Moment    (muB)  0.000080845   Angles  159.832353116   225.144399673
<DFT>  Total Orbital Moment (muB)  0.000000000   Angles  141.949709989   -18.162185584
<DFT>  Total Moment         (muB)  0.000080846   Angles  159.832443527   225.144671420
<DFT>  Mixing_weight= 0.047387907043
<DFT>  Uele   =  -88.749028035088  dUele     =   0.000028408863
<DFT>  NormRD =    0.001357533058  Criterion =   0.000000000100

******************* MD= 1  SCF=36 *******************
<Poisson>  Poisson's equation using FFT...
<Set_Hamiltonian>  Hamiltonian matrix for VNA+dVH+Vxc...
<Band>  Solving the eigenvalue problem...
 KGrids1:  -0.45833  -0.37500  -0.29167  -0.20833  -0.12500  -0.04167   0.04167   0.12500   0.20833   0.29167   0.37500   0.45833 
 KGrids2:  -0.45833  -0.37500  -0.29167  -0.20833  -0.12500  -0.04167   0.04167   0.12500   0.20833   0.29167   0.37500   0.45833 
 KGrids3:  -0.45833  -0.37500  -0.29166  -0.20833  -0.12500  -0.04166   0.04167   0.12500   0.20834   0.29167   0.37500   0.45834 
<Band_DFT>  Eigen, time=0.671681
<Band_DFT>  DM, time=1.199753
    1   Mn  MulP 8.93 5.69 sum 14.62 diff  3.24 (114.09 -26.57)  Ml 0.00 ( 84.21 -10.00)  Ml+s 3.24 (114.09 -26.57)
    2   Mn  MulP 8.93 5.69 sum 14.62 diff  3.24 ( 35.26 225.00)  Ml 0.00 (158.84 -23.46)  Ml+s 3.24 ( 35.26 225.00)
    3   Mn  MulP 8.93 5.69 sum 14.62 diff  3.24 (114.09 116.57)  Ml 0.00 (136.32 255.13)  Ml+s 3.24 (114.09 116.57)
    4   Ni  MulP 9.13 9.13 sum 18.27 diff  0.00 (106.46 225.26)  Ml 0.00 ( 99.90  37.26)  Ml+s 0.00 (106.46 225.26)
    5    N  MulP 2.94 2.94 sum  5.88 diff  0.00 (156.17  45.12)  Ml 0.00 ( 64.53 267.30)  Ml+s 0.00 (156.17  45.12)
 Sum of MulP: up   =    38.86581 down          =    29.13419
              total=    68.00000 ideal(neutral)=    68.00000
<DFT>  Total Spin Moment    (muB)  0.000066475   Angles  167.574910917   225.297836968
<DFT>  Total Orbital Moment (muB)  0.000000000   Angles  144.578833964   -43.207975465
<DFT>  Total Moment         (muB)  0.000066475   Angles  167.574954427   225.298453318
<DFT>  Mixing_weight= 0.058632682061
<DFT>  Uele   =  -88.748987952476  dUele     =   0.000040082612
<DFT>  NormRD =    0.000594505558  Criterion =   0.000000000100

******************* MD= 1  SCF=37 *******************
<Poisson>  Poisson's equation using FFT...
<Set_Hamiltonian>  Hamiltonian matrix for VNA+dVH+Vxc...
<Band>  Solving the eigenvalue problem...
 KGrids1:  -0.45833  -0.37500  -0.29167  -0.20833  -0.12500  -0.04167   0.04167   0.12500   0.20833   0.29167   0.37500   0.45833 
 KGrids2:  -0.45833  -0.37500  -0.29167  -0.20833  -0.12500  -0.04167   0.04167   0.12500   0.20833   0.29167   0.37500   0.45833 
 KGrids3:  -0.45833  -0.37500  -0.29166  -0.20833  -0.12500  -0.04166   0.04167   0.12500   0.20834   0.29167   0.37500   0.45834 
<Band_DFT>  Eigen, time=0.683170
<Band_DFT>  DM, time=1.196149
    1   Mn  MulP 8.93 5.69 sum 14.62 diff  3.24 (114.09 -26.57)  Ml 0.00 ( 40.68 -35.19)  Ml+s 3.24 (114.09 -26.57)
    2   Mn  MulP 8.93 5.69 sum 14.62 diff  3.24 ( 35.26 225.00)  Ml 0.00 (135.14  18.69)  Ml+s 3.24 ( 35.26 225.00)
    3   Mn  MulP 8.93 5.69 sum 14.62 diff  3.24 (114.09 116.57)  Ml 0.00 (116.37 238.22)  Ml+s 3.24 (114.09 116.57)
    4   Ni  MulP 9.13 9.13 sum 18.27 diff  0.00 (102.01  45.08)  Ml 0.00 (115.64 124.31)  Ml+s 0.00 (102.01  45.08)
    5    N  MulP 2.94 2.94 sum  5.88 diff  0.00 ( 28.55 225.05)  Ml 0.00 ( 57.86 268.47)  Ml+s 0.00 ( 28.55 225.05)
 Sum of MulP: up   =    38.86615 down          =    29.13385
              total=    68.00000 ideal(neutral)=    68.00000
<DFT>  Total Spin Moment    (muB)  0.000003464   Angles   51.018149805    45.523575980
<DFT>  Total Orbital Moment (muB)  0.000000000   Angles  166.079120069   216.681229464
<DFT>  Total Moment         (muB)  0.000003464   Angles   51.019381990    45.523672875
<DFT>  Mixing_weight= 0.112311141279
<DFT>  Uele   =  -88.748908489009  dUele     =   0.000079463468
<DFT>  NormRD =    0.000411002553  Criterion =   0.000000000100

******************* MD= 1  SCF=38 *******************
<Poisson>  Poisson's equation using FFT...
<Set_Hamiltonian>  Hamiltonian matrix for VNA+dVH+Vxc...
<Band>  Solving the eigenvalue problem...
 KGrids1:  -0.45833  -0.37500  -0.29167  -0.20833  -0.12500  -0.04167   0.04167   0.12500   0.20833   0.29167   0.37500   0.45833 
 KGrids2:  -0.45833  -0.37500  -0.29167  -0.20833  -0.12500  -0.04167   0.04167   0.12500   0.20833   0.29167   0.37500   0.45833 
 KGrids3:  -0.45833  -0.37500  -0.29166  -0.20833  -0.12500  -0.04166   0.04167   0.12500   0.20834   0.29167   0.37500   0.45834 
<Band_DFT>  Eigen, time=0.684396
<Band_DFT>  DM, time=1.197406
    1   Mn  MulP 8.93 5.69 sum 14.62 diff  3.24 (114.09 -26.57)  Ml 0.00 ( 33.84   3.20)  Ml+s 3.24 (114.09 -26.57)
    2   Mn  MulP 8.93 5.69 sum 14.62 diff  3.24 ( 35.26 225.00)  Ml 0.00 (143.25   9.64)  Ml+s 3.24 ( 35.26 225.00)
    3   Mn  MulP 8.93 5.69 sum 14.62 diff  3.24 (114.09 116.57)  Ml 0.00 ( 63.94 -62.57)  Ml+s 3.24 (114.09 116.57)
    4   Ni  MulP 9.14 9.13 sum 18.27 diff  0.00 ( 71.83 225.10)  Ml 0.00 ( 91.09   3.54)  Ml+s 0.00 ( 71.83 225.10)
    5    N  MulP 2.94 2.94 sum  5.88 diff  0.00 (157.18  45.10)  Ml 0.00 ( 41.94 219.09)  Ml+s 0.00 (157.18  45.10)
 Sum of MulP: up   =    38.86755 down          =    29.13245
              total=    68.00000 ideal(neutral)=    68.00000
<DFT>  Total Spin Moment    (muB)  0.000126860   Angles   86.651375421   225.076462031
<DFT>  Total Orbital Moment (muB)  0.000000000   Angles   74.358586434   -15.372437740
<DFT>  Total Moment         (muB)  0.000126859   Angles   86.651341332   225.076558377
<DFT>  Mixing_weight= 0.400000000000
<DFT>  Uele   =  -88.748633876524  dUele     =   0.000274612484
<DFT>  NormRD =    0.000401785316  Criterion =   0.000000000100

******************* MD= 1  SCF=39 *******************
<Poisson>  Poisson's equation using FFT...
<Set_Hamiltonian>  Hamiltonian matrix for VNA+dVH+Vxc...
<Band>  Solving the eigenvalue problem...
 KGrids1:  -0.45833  -0.37500  -0.29167  -0.20833  -0.12500  -0.04167   0.04167   0.12500   0.20833   0.29167   0.37500   0.45833 
 KGrids2:  -0.45833  -0.37500  -0.29167  -0.20833  -0.12500  -0.04167   0.04167   0.12500   0.20833   0.29167   0.37500   0.45833 
 KGrids3:  -0.45833  -0.37500  -0.29166  -0.20833  -0.12500  -0.04166   0.04167   0.12500   0.20834   0.29167   0.37500   0.45834 
<Band_DFT>  Eigen, time=0.682196
<Band_DFT>  DM, time=1.199659
    1   Mn  MulP 8.93 5.69 sum 14.62 diff  3.25 (114.10 -26.56)  Ml 0.00 ( 75.34   7.91)  Ml+s 3.25 (114.10 -26.56)
    2   Mn  MulP 8.93 5.69 sum 14.62 diff  3.25 ( 35.26 225.00)  Ml 0.00 (143.40 -19.29)  Ml+s 3.25 ( 35.26 225.00)
    3   Mn  MulP 8.93 5.69 sum 14.62 diff  3.25 (114.10 116.56)  Ml 0.00 ( 98.19 258.92)  Ml+s 3.25 (114.10 116.56)
    4   Ni  MulP 9.13 9.13 sum 18.27 diff  0.00 ( 53.43 225.14)  Ml 0.00 (111.83  56.72)  Ml+s 0.00 ( 53.43 225.14)
    5    N  MulP 2.94 2.94 sum  5.88 diff  0.00 (151.15  45.07)  Ml 0.00 ( 61.27 211.34)  Ml+s 0.00 (151.15  45.07)
 Sum of MulP: up   =    38.86782 down          =    29.13218
              total=    68.00000 ideal(neutral)=    68.00000
<DFT>  Total Spin Moment    (muB)  0.000188839   Angles  174.234581014    45.148589944
<DFT>  Total Orbital Moment (muB)  0.000000000   Angles  127.338022961    -2.567377200
<DFT>  Total Moment         (muB)  0.000188839   Angles  174.234550195    45.148207052
<DFT>  Mixing_weight= 0.169839668619
<DFT>  Uele   =  -88.748544377647  dUele     =   0.000089498878
<DFT>  NormRD =    0.000467724082  Criterion =   0.000000000100

******************* MD= 1  SCF=40 *******************
[...]
<DFT>  Total Orbital Moment (muB)  0.000000038   Angles   68.900551031   236.596365776
<DFT>  Total Moment         (muB)  0.000008697   Angles   46.861947899   226.016147615
<DFT>  Mixing_weight= 0.080438378227
<DFT>  Uele   =  -88.747491828800  dUele     =   0.000000002068
<DFT>  NormRD =    0.000333562392  Criterion =   0.000000000100

******************* MD= 1  SCF=193 *******************
<Poisson>  Poisson's equation using FFT...
<Set_Hamiltonian>  Hamiltonian matrix for VNA+dVH+Vxc...
<Band>  Solving the eigenvalue problem...
 KGrids1:  -0.45833  -0.37500  -0.29167  -0.20833  -0.12500  -0.04167   0.04167   0.12500   0.20833   0.29167   0.37500   0.45833 
 KGrids2:  -0.45833  -0.37500  -0.29167  -0.20833  -0.12500  -0.04167   0.04167   0.12500   0.20833   0.29167   0.37500   0.45833 
 KGrids3:  -0.45833  -0.37500  -0.29166  -0.20833  -0.12500  -0.04166   0.04167   0.12500   0.20834   0.29167   0.37500   0.45834 
<Band_DFT>  Eigen, time=0.673278
<Band_DFT>  DM, time=1.200493
    1   Mn  MulP 8.93 5.68 sum 14.62 diff  3.25 (114.09 -26.57)  Ml 0.00 ( 64.34 229.70)  Ml+s 3.25 (114.09 -26.57)
    2   Mn  MulP 8.93 5.68 sum 14.62 diff  3.25 ( 35.26 225.00)  Ml 0.00 ( 88.35 245.14)  Ml+s 3.25 ( 35.26 225.00)
    3   Mn  MulP 8.93 5.68 sum 14.62 diff  3.25 (114.09 116.57)  Ml 0.00 ( 49.31 228.22)  Ml+s 3.25 (114.09 116.57)
    4   Ni  MulP 9.13 9.13 sum 18.27 diff  0.00 (143.68  39.69)  Ml 0.00 (102.63 -38.55)  Ml+s 0.00 (143.68  39.58)
    5    N  MulP 2.94 2.94 sum  5.88 diff  0.00 (  5.06 229.74)  Ml 0.00 (109.28 143.30)  Ml+s 0.00 (  5.06 229.57)
 Sum of MulP: up   =    38.87207 down          =    29.12793
              total=    68.00000 ideal(neutral)=    68.00000
<DFT>  Total Spin Moment    (muB)  0.000008677   Angles   47.003813939   225.981462535
<DFT>  Total Orbital Moment (muB)  0.000000039   Angles   69.505754757   235.807171303
<DFT>  Total Moment         (muB)  0.000008712   Angles   47.098387417   226.036732713
<DFT>  Mixing_weight= 0.080438378227
<DFT>  Uele   =  -88.747491828860  dUele     =   0.000000000059
<DFT>  NormRD =    0.000333597664  Criterion =   0.000000000100

******************* MD= 1  SCF=194 *******************
<Poisson>  Poisson's equation using FFT...
<Set_Hamiltonian>  Hamiltonian matrix for VNA+dVH+Vxc...
<Band>  Solving the eigenvalue problem...
 KGrids1:  -0.45833  -0.37500  -0.29167  -0.20833  -0.12500  -0.04167   0.04167   0.12500   0.20833   0.29167   0.37500   0.45833 
 KGrids2:  -0.45833  -0.37500  -0.29167  -0.20833  -0.12500  -0.04167   0.04167   0.12500   0.20833   0.29167   0.37500   0.45833 
 KGrids3:  -0.45833  -0.37500  -0.29166  -0.20833  -0.12500  -0.04166   0.04167   0.12500   0.20834   0.29167   0.37500   0.45834 
<Band_DFT>  Eigen, time=0.684443
<Band_DFT>  DM, time=1.200685
    1   Mn  MulP 8.93 5.68 sum 14.62 diff  3.25 (114.09 -26.57)  Ml 0.00 ( 64.23 229.86)  Ml+s 3.25 (114.09 -26.57)
    2   Mn  MulP 8.93 5.68 sum 14.62 diff  3.25 ( 35.26 225.00)  Ml 0.00 ( 88.31 246.89)  Ml+s 3.25 ( 35.26 225.00)
    3   Mn  MulP 8.93 5.68 sum 14.62 diff  3.25 (114.09 116.57)  Ml 0.00 ( 48.24 230.44)  Ml+s 3.25 (114.09 116.57)
    4   Ni  MulP 9.13 9.13 sum 18.27 diff  0.00 (143.59  39.71)  Ml 0.00 (102.52 -38.05)  Ml+s 0.00 (143.58  39.60)
    5    N  MulP 2.94 2.94 sum  5.88 diff  0.00 (  5.04 230.12)  Ml 0.00 (109.31 144.72)  Ml+s 0.00 (  5.04 229.95)
 Sum of MulP: up   =    38.87207 down          =    29.12793
              total=    68.00000 ideal(neutral)=    68.00000
<DFT>  Total Spin Moment    (muB)  0.000008645   Angles   46.817192867   225.931470518
<DFT>  Total Orbital Moment (muB)  0.000000038   Angles   69.211095712   236.977366606
<DFT>  Total Moment         (muB)  0.000008680   Angles   46.910294421   225.993324388
<DFT>  Mixing_weight= 0.080438378227
<DFT>  Uele   =  -88.747491833481  dUele     =   0.000000004622
<DFT>  NormRD =    0.000333578637  Criterion =   0.000000000100

******************* MD= 1  SCF=195 *******************
<Poisson>  Poisson's equation using FFT...
<Set_Hamiltonian>  Hamiltonian matrix for VNA+dVH+Vxc...
<Band>  Solving the eigenvalue problem...
 KGrids1:  -0.45833  -0.37500  -0.29167  -0.20833  -0.12500  -0.04167   0.04167   0.12500   0.20833   0.29167   0.37500   0.45833 
 KGrids2:  -0.45833  -0.37500  -0.29167  -0.20833  -0.12500  -0.04167   0.04167   0.12500   0.20833   0.29167   0.37500   0.45833 
 KGrids3:  -0.45833  -0.37500  -0.29166  -0.20833  -0.12500  -0.04166   0.04167   0.12500   0.20834   0.29167   0.37500   0.45834 
<Band_DFT>  Eigen, time=0.684755
<Band_DFT>  DM, time=1.205800
    1   Mn  MulP 8.93 5.68 sum 14.62 diff  3.25 (114.09 -26.57)  Ml 0.00 ( 64.46 229.79)  Ml+s 3.25 (114.09 -26.57)
    2   Mn  MulP 8.93 5.68 sum 14.62 diff  3.25 ( 35.26 225.00)  Ml 0.00 ( 88.30 247.01)  Ml+s 3.25 ( 35.26 225.00)
    3   Mn  MulP 8.93 5.68 sum 14.62 diff  3.25 (114.09 116.57)  Ml 0.00 ( 48.65 230.95)  Ml+s 3.25 (114.09 116.57)
    4   Ni  MulP 9.13 9.13 sum 18.27 diff  0.00 (143.78  39.72)  Ml 0.00 (103.03 -38.47)  Ml+s 0.00 (143.78  39.62)
    5    N  MulP 2.94 2.94 sum  5.88 diff  0.00 (  5.11 229.02)  Ml 0.00 (108.84 145.28)  Ml+s 0.00 (  5.11 228.85)
 Sum of MulP: up   =    38.87207 down          =    29.12793
              total=    68.00000 ideal(neutral)=    68.00000
<DFT>  Total Spin Moment    (muB)  0.000008638   Angles   47.000043210   226.168375456
<DFT>  Total Orbital Moment (muB)  0.000000038   Angles   69.436425312   237.005534935
<DFT>  Total Moment         (muB)  0.000008673   Angles   47.093630872   226.229111337
<DFT>  Mixing_weight= 0.080438378227
<DFT>  Uele   =  -88.747491820678  dUele     =   0.000000012803
<DFT>  NormRD =    0.000333672069  Criterion =   0.000000000100

******************* MD= 1  SCF=196 *******************
<Poisson>  Poisson's equation using FFT...
<Set_Hamiltonian>  Hamiltonian matrix for VNA+dVH+Vxc...
<Band>  Solving the eigenvalue problem...
 KGrids1:  -0.45833  -0.37500  -0.29167  -0.20833  -0.12500  -0.04167   0.04167   0.12500   0.20833   0.29167   0.37500   0.45833 
 KGrids2:  -0.45833  -0.37500  -0.29167  -0.20833  -0.12500  -0.04167   0.04167   0.12500   0.20833   0.29167   0.37500   0.45833 
 KGrids3:  -0.45833  -0.37500  -0.29166  -0.20833  -0.12500  -0.04166   0.04167   0.12500   0.20834   0.29167   0.37500   0.45834 
<Band_DFT>  Eigen, time=0.677463
<Band_DFT>  DM, time=1.199152
    1   Mn  MulP 8.93 5.68 sum 14.62 diff  3.25 (114.09 -26.57)  Ml 0.00 ( 64.36 229.87)  Ml+s 3.25 (114.09 -26.57)
    2   Mn  MulP 8.93 5.68 sum 14.62 diff  3.25 ( 35.26 225.00)  Ml 0.00 ( 88.25 248.10)  Ml+s 3.25 ( 35.26 225.00)
    3   Mn  MulP 8.93 5.68 sum 14.62 diff  3.25 (114.09 116.57)  Ml 0.00 ( 48.06 232.56)  Ml+s 3.25 (114.09 116.57)
    4   Ni  MulP 9.13 9.13 sum 18.27 diff  0.00 (143.65  39.61)  Ml 0.00 (102.25 -36.92)  Ml+s 0.00 (143.64  39.51)
    5    N  MulP 2.94 2.94 sum  5.88 diff  0.00 (  5.04 230.30)  Ml 0.00 (109.12 146.53)  Ml+s 0.00 (  5.04 230.13)
 Sum of MulP: up   =    38.87207 down          =    29.12793
              total=    68.00000 ideal(neutral)=    68.00000
<DFT>  Total Spin Moment    (muB)  0.000008668   Angles   47.037949481   225.918707756
<DFT>  Total Orbital Moment (muB)  0.000000038   Angles   69.159340369   237.754092730
<DFT>  Total Moment         (muB)  0.000008703   Angles   47.129427367   225.984598442
<DFT>  Mixing_weight= 0.080438378227
<DFT>  Uele   =  -88.747491825861  dUele     =   0.000000005183
<DFT>  NormRD =    0.000333633424  Criterion =   0.000000000100

******************* MD= 1  SCF=197 *******************
<Poisson>  Poisson's equation using FFT...
<Set_Hamiltonian>  Hamiltonian matrix for VNA+dVH+Vxc...
<Band>  Solving the eigenvalue problem...
 KGrids1:  -0.45833  -0.37500  -0.29167  -0.20833  -0.12500  -0.04167   0.04167   0.12500   0.20833   0.29167   0.37500   0.45833 
 KGrids2:  -0.45833  -0.37500  -0.29167  -0.20833  -0.12500  -0.04167   0.04167   0.12500   0.20833   0.29167   0.37500   0.45833 
 KGrids3:  -0.45833  -0.37500  -0.29166  -0.20833  -0.12500  -0.04166   0.04167   0.12500   0.20834   0.29167   0.37500   0.45834 
<Band_DFT>  Eigen, time=0.676655
<Band_DFT>  DM, time=1.209092
    1   Mn  MulP 8.93 5.68 sum 14.62 diff  3.25 (114.09 -26.57)  Ml 0.00 ( 64.64 229.75)  Ml+s 3.25 (114.09 -26.57)
    2   Mn  MulP 8.93 5.68 sum 14.62 diff  3.25 ( 35.26 225.00)  Ml 0.00 ( 88.03 246.11)  Ml+s 3.25 ( 35.26 225.00)
    3   Mn  MulP 8.93 5.68 sum 14.62 diff  3.25 (114.09 116.57)  Ml 0.00 ( 49.29 229.68)  Ml+s 3.25 (114.09 116.57)
    4   Ni  MulP 9.13 9.13 sum 18.27 diff  0.00 (143.56  39.68)  Ml 0.00 (102.13 -37.26)  Ml+s 0.00 (143.56  39.58)
    5    N  MulP 2.94 2.94 sum  5.88 diff  0.00 (  5.08 229.90)  Ml 0.00 (108.87 144.87)  Ml+s 0.00 (  5.08 229.73)
 Sum of MulP: up   =    38.87207 down          =    29.12793
              total=    68.00000 ideal(neutral)=    68.00000
<DFT>  Total Spin Moment    (muB)  0.000008668   Angles   47.046259389   225.889886096
<DFT>  Total Orbital Moment (muB)  0.000000039   Angles   69.519482653   236.543542007
<DFT>  Total Moment         (muB)  0.000008703   Angles   47.140670630   225.949959287
<DFT>  Mixing_weight= 0.080438378227
<DFT>  Uele   =  -88.747491824111  dUele     =   0.000000001750
<DFT>  NormRD =    0.000333664352  Criterion =   0.000000000100

******************* MD= 1  SCF=198 *******************
<Poisson>  Poisson's equation using FFT...
<Set_Hamiltonian>  Hamiltonian matrix for VNA+dVH+Vxc...
<Band>  Solving the eigenvalue problem...
 KGrids1:  -0.45833  -0.37500  -0.29167  -0.20833  -0.12500  -0.04167   0.04167   0.12500   0.20833   0.29167   0.37500   0.45833 
 KGrids2:  -0.45833  -0.37500  -0.29167  -0.20833  -0.12500  -0.04167   0.04167   0.12500   0.20833   0.29167   0.37500   0.45833 
 KGrids3:  -0.45833  -0.37500  -0.29166  -0.20833  -0.12500  -0.04166   0.04167   0.12500   0.20834   0.29167   0.37500   0.45834 
<Band_DFT>  Eigen, time=0.677932
<Band_DFT>  DM, time=1.199579
    1   Mn  MulP 8.93 5.68 sum 14.62 diff  3.25 (114.09 -26.57)  Ml 0.00 ( 64.78 229.85)  Ml+s 3.25 (114.09 -26.57)
    2   Mn  MulP 8.93 5.68 sum 14.62 diff  3.25 ( 35.26 225.00)  Ml 0.00 ( 88.14 245.79)  Ml+s 3.25 ( 35.26 225.00)
    3   Mn  MulP 8.93 5.68 sum 14.62 diff  3.25 (114.09 116.57)  Ml 0.00 ( 49.46 228.88)  Ml+s 3.25 (114.09 116.57)
    4   Ni  MulP 9.13 9.13 sum 18.27 diff  0.00 (143.73  39.77)  Ml 0.00 (102.23 -37.06)  Ml+s 0.00 (143.73  39.66)
    5    N  MulP 2.94 2.94 sum  5.88 diff  0.00 (  4.96 230.58)  Ml 0.00 (108.87 144.29)  Ml+s 0.00 (  4.96 230.40)
 Sum of MulP: up   =    38.87207 down          =    29.12793
              total=    68.00000 ideal(neutral)=    68.00000
<DFT>  Total Spin Moment    (muB)  0.000008652   Angles   47.051279712   225.908446108
<DFT>  Total Orbital Moment (muB)  0.000000039   Angles   69.693141319   236.291641746
<DFT>  Total Moment         (muB)  0.000008687   Angles   47.147100630   225.967429434
<DFT>  Mixing_weight= 0.080438378227
<DFT>  Uele   =  -88.747491821056  dUele     =   0.000000003055
<DFT>  NormRD =    0.000333664197  Criterion =   0.000000000100

******************* MD= 1  SCF=199 *******************
<Poisson>  Poisson's equation using FFT...
<Set_Hamiltonian>  Hamiltonian matrix for VNA+dVH+Vxc...
<Band>  Solving the eigenvalue problem...
 KGrids1:  -0.45833  -0.37500  -0.29167  -0.20833  -0.12500  -0.04167   0.04167   0.12500   0.20833   0.29167   0.37500   0.45833 
 KGrids2:  -0.45833  -0.37500  -0.29167  -0.20833  -0.12500  -0.04167   0.04167   0.12500   0.20833   0.29167   0.37500   0.45833 
 KGrids3:  -0.45833  -0.37500  -0.29166  -0.20833  -0.12500  -0.04166   0.04167   0.12500   0.20834   0.29167   0.37500   0.45834 
<Band_DFT>  Eigen, time=0.674988
<Band_DFT>  DM, time=1.199427
    1   Mn  MulP 8.93 5.68 sum 14.62 diff  3.25 (114.09 -26.57)  Ml 0.00 ( 65.82 229.75)  Ml+s 3.25 (114.09 -26.57)
    2   Mn  MulP 8.93 5.68 sum 14.62 diff  3.25 ( 35.26 225.00)  Ml 0.00 ( 88.59 244.86)  Ml+s 3.25 ( 35.26 225.00)
    3   Mn  MulP 8.93 5.68 sum 14.62 diff  3.25 (114.09 116.57)  Ml 0.00 ( 51.41 227.81)  Ml+s 3.25 (114.09 116.57)
    4   Ni  MulP 9.13 9.13 sum 18.27 diff  0.00 (143.74  40.15)  Ml 0.00 (102.01 -39.65)  Ml+s 0.00 (143.74  40.05)
    5    N  MulP 2.94 2.94 sum  5.88 diff  0.00 (  5.34 229.46)  Ml 0.00 (108.76 143.78)  Ml+s 0.00 (  5.34 229.29)
 Sum of MulP: up   =    38.87207 down          =    29.12793
              total=    68.00000 ideal(neutral)=    68.00000
<DFT>  Total Spin Moment    (muB)  0.000008658   Angles   46.776263163   226.163768553
<DFT>  Total Orbital Moment (muB)  0.000000039   Angles   70.946333963   235.664636310
<DFT>  Total Moment         (muB)  0.000008693   Angles   46.878798304   226.218476607
<DFT>  Mixing_weight= 0.080438378227
<DFT>  Uele   =  -88.747491805966  dUele     =   0.000000015090
<DFT>  NormRD =    0.000333727893  Criterion =   0.000000000100

******************* MD= 1  SCF=200 *******************
<Poisson>  Poisson's equation using FFT...
<Set_Hamiltonian>  Hamiltonian matrix for VNA+dVH+Vxc...
<Band>  Solving the eigenvalue problem...
 KGrids1:  -0.45833  -0.37500  -0.29167  -0.20833  -0.12500  -0.04167   0.04167   0.12500   0.20833   0.29167   0.37500   0.45833 
 KGrids2:  -0.45833  -0.37500  -0.29167  -0.20833  -0.12500  -0.04167   0.04167   0.12500   0.20833   0.29167   0.37500   0.45833 
 KGrids3:  -0.45833  -0.37500  -0.29166  -0.20833  -0.12500  -0.04166   0.04167   0.12500   0.20834   0.29167   0.37500   0.45834 
<Band_DFT>  Eigen, time=0.688073
<Band_DFT>  DM, time=1.226640
    1   Mn  MulP 8.93 5.68 sum 14.62 diff  3.25 (114.09 -26.57)  Ml 0.00 ( 67.22 230.41)  Ml+s 3.25 (114.09 -26.57)
    2   Mn  MulP 8.93 5.68 sum 14.62 diff  3.25 ( 35.26 225.00)  Ml 0.00 ( 89.02 246.49)  Ml+s 3.25 ( 35.26 225.00)
    3   Mn  MulP 8.93 5.68 sum 14.62 diff  3.25 (114.09 116.57)  Ml 0.00 ( 51.94 228.61)  Ml+s 3.25 (114.09 116.57)
    4   Ni  MulP 9.13 9.13 sum 18.27 diff  0.00 (143.67  40.15)  Ml 0.00 (101.47 -38.07)  Ml+s 0.00 (143.67  40.05)
    5    N  MulP 2.94 2.94 sum  5.88 diff  0.00 (  5.13 229.91)  Ml 0.00 (108.65 144.05)  Ml+s 0.00 (  5.13 229.73)
 Sum of MulP: up   =    38.87207 down          =    29.12793
              total=    68.00000 ideal(neutral)=    68.00000
<DFT>  Total Spin Moment    (muB)  0.000008648   Angles   46.800374308   226.202186001
<DFT>  Total Orbital Moment (muB)  0.000000039   Angles   72.055686518   236.605099226
<DFT>  Total Moment         (muB)  0.000008682   Angles   46.907805646   226.262934999
<DFT>  Mixing_weight= 0.080438378227
<DFT>  Uele   =  -88.747491806880  dUele     =   0.000000000913
<DFT>  NormRD =    0.000333533907  Criterion =   0.000000000100
<MD= 1>  Force calculation
  Force calculation #1
  Force calculation #2
  Force calculation #3
  Force calculation #4
  Force calculation #5
  Force calculation for LDA_U with dual
<MD= 1>  Total Energy
  Force calculation #6
  Force calculation #7

*******************************************************
                  Dipole moment (Debye)                 
*******************************************************

 Absolute D      480.64137363

                      Dx                Dy                Dz
 Total           -277.49842635     -277.49842618     -277.49842682
 Core             322.64848806      322.64848806      322.64848806
 Electron        -600.14691441     -600.14691424     -600.14691489
 Back ground       -0.00000000       -0.00000000       -0.00000000

*******************************************************
                Total Energy (Hartree) at MD = 1        
*******************************************************

  Uele  =     -88.747491806880

  Ukin  =     258.998665739494
  UH0   =   -5634.650344179698
  UH1   =       0.030425265177
  Una   =    -242.800646904320
  Unl   =     -35.103521698570
  Uxc0  =     -33.957368618759
  Uxc1  =     -26.330968206705
  Ucore =    5221.037075157719
  Uhub  =       0.000000000000
  Ucs   =       0.000000000001
  Uzs   =       0.000000000000
  Uzo   =       0.000000000000
  Uef   =       0.000000000000
  UvdW  =       0.000000000000
  Uch   =       0.000000000000
  Utot  =    -492.776683445660

  UpV   =       0.000000000000
  Enpy  =    -492.776683445660
  Note:

  Uele:   band energy
  Ukin:   kinetic energy
  UH0:    electric part of screened Coulomb energy
  UH1:    difference electron-electron Coulomb energy
  Una:    neutral atom potential energy
  Unl:    non-local potential energy
  Uxc0:   exchange-correlation energy for alpha spin
  Uxc1:   exchange-correlation energy for beta spin
  Ucore:  core-core Coulomb energy
  Uhub:   LDA+U energy
  Ucs:    constraint energy for spin orientation
  Uzs:    Zeeman term for spin magnetic moment
  Uzo:    Zeeman term for orbital magnetic moment
  Uef:    electric energy by electric field
  UvdW:   semi-empirical vdW energy 
  Uch:    penalty term to create a core hole
  UpV:    pressure times volume
  Enpy:   Enthalpy = Utot + UpV
  (see also PRB 72, 045121(2005) for the energy contributions)


*******************************************************
           Computational times (s) at MD = 1            
*******************************************************

  DFT in total      =  837.12906

  Set_OLP_Kin       =    0.61058
  Set_Nonlocal      =    0.99676
  Set_ProExpn_VNA   =    3.12498
  Set_Hamiltonian   =  149.89389
  Poisson           =    0.14541
  diagonalization   =  392.05678
  Mixing_DM         =  159.52693
  Force             =    4.33409
  Total_Energy      =    0.85327
  Set_Aden_Grid     =    0.03099
  Set_Orbitals_Grid =    0.43788
  Set_Density_Grid  =  122.51509
  RestartFileDFT    =    0.14621
  Mulliken_Charge   =    0.22696
  FFT(2D)_Density   =    0.00000

The SCF was not fully achieved at MD=   1

*******************************************************
             MD or geometry opt. at MD = 1              
*******************************************************


outputting data on grids to files...


***********************************************************
***********************************************************
               Computational Time (second)                 
***********************************************************
***********************************************************

                               Min_ID   Min_Time       Max_ID   Max_Time
   Total Computational Time =    43      841.842          0      841.957
   readfile                 =    56        1.893          0        1.900
   truncation               =    60        1.362          0        1.597
   MD_pac                   =     0        0.002         61        0.004
   OutData                  =    44        1.082          0        1.198
   DFT                      =     0      837.129         63      837.363

*** In DFT ***

   Set_OLP_Kin              =    60        0.045          0        0.611
   Set_Nonlocal             =     0        0.997         60        1.562
   Set_ProExpn_VNA          =     5        1.735          0        3.125
   Set_Hamiltonian          =     2      149.894         56      149.894
   Poisson                  =    55        0.145         23        0.146
   Diagonalization          =     0      392.057         60      392.114
   Mixing_DM                =     4      159.527         55      159.527
   Force                    =     0        4.334         61        4.334
   Total_Energy             =    48        0.851          0        0.853
   Set_Aden_Grid            =     0        0.031          5        1.420
   Set_Orbitals_Grid        =     5        0.000          0        0.438
   Set_Density_Grid         =     7      122.248          2      122.597
   RestartFileDFT           =    14        0.104         16        0.148
   Mulliken_Charge          =     8        0.226         16        0.227
   FFT(2D)_Density          =     0        0.000          0        0.000
   Others                   =     3        2.142         10        3.148

The calculation was normally finished.

